n -t 0 -s 0 -S DLABEL -l "source1" -L ""
n -t 0 -s 1 -S DLABEL -l "source2" -L ""
V -t * -v 1.0a5 -a 0
A -t * -n 1 -p 0 -o 0xffffffff -c 31 -a 1
A -t * -h 1 -m 2147483647 -s 0
c -t * -i 1 -n Blue
c -t * -i 2 -n Red
n -t * -a 0 -s 0 -S UP -v circle -c black -i black
n -t * -a 1 -s 1 -S UP -v circle -c black -i black
n -t * -a 2 -s 2 -S UP -v circle -c black -i black
l -t * -s 0 -d 2 -S UP -r 1000000 -D 0.014999999999999999 -c black -o right-down
l -t * -s 1 -d 2 -S UP -r 500000 -D 0.014999999999999999 -c black -o right-up
+ -t 0.1 -s 0 -d 2 -p cbr -e 1000 -c 1 -i 0 -a 1 -x {0.0 2.0 0 ------- null}
- -t 0.1 -s 0 -d 2 -p cbr -e 1000 -c 1 -i 0 -a 1 -x {0.0 2.0 0 ------- null}
h -t 0.1 -s 0 -d 2 -p cbr -e 1000 -c 1 -i 0 -a 1 -x {0.0 2.0 -1 ------- null}
+ -t 0.1 -s 0 -d 2 -p cbr -e 1000 -c 1 -i 1 -a 1 -x {0.0 2.0 1 ------- null}
+ -t 0.105 -s 0 -d 2 -p cbr -e 1000 -c 1 -i 2 -a 1 -x {0.0 2.0 2 ------- null}
+ -t 0.105 -s 0 -d 2 -p cbr -e 1000 -c 1 -i 3 -a 1 -x {0.0 2.0 3 ------- null}
- -t 0.108 -s 0 -d 2 -p cbr -e 1000 -c 1 -i 1 -a 1 -x {0.0 2.0 1 ------- null}
h -t 0.108 -s 0 -d 2 -p cbr -e 1000 -c 1 -i 1 -a 1 -x {0.0 2.0 -1 ------- null}
+ -t 0.11 -s 0 -d 2 -p cbr -e 1000 -c 1 -i 4 -a 1 -x {0.0 2.0 4 ------- null}
+ -t 0.11 -s 0 -d 2 -p cbr -e 1000 -c 1 -i 5 -a 1 -x {0.0 2.0 5 ------- null}
+ -t 0.115 -s 0 -d 2 -p cbr -e 1000 -c 1 -i 6 -a 1 -x {0.0 2.0 6 ------- null}
+ -t 0.115 -s 0 -d 2 -p cbr -e 1000 -c 1 -i 7 -a 1 -x {0.0 2.0 7 ------- null}
- -t 0.116 -s 0 -d 2 -p cbr -e 1000 -c 1 -i 2 -a 1 -x {0.0 2.0 2 ------- null}
h -t 0.116 -s 0 -d 2 -p cbr -e 1000 -c 1 -i 2 -a 1 -x {0.0 2.0 -1 ------- null}
+ -t 0.12 -s 0 -d 2 -p cbr -e 1000 -c 1 -i 8 -a 1 -x {0.0 2.0 8 ------- null}
+ -t 0.12 -s 0 -d 2 -p cbr -e 1000 -c 1 -i 9 -a 1 -x {0.0 2.0 9 ------- null}
r -t 0.123 -s 0 -d 2 -p cbr -e 1000 -c 1 -i 0 -a 1 -x {0.0 2.0 0 ------- null}
- -t 0.124 -s 0 -d 2 -p cbr -e 1000 -c 1 -i 3 -a 1 -x {0.0 2.0 3 ------- null}
h -t 0.124 -s 0 -d 2 -p cbr -e 1000 -c 1 -i 3 -a 1 -x {0.0 2.0 -1 ------- null}
+ -t 0.125 -s 0 -d 2 -p cbr -e 1000 -c 1 -i 10 -a 1 -x {0.0 2.0 10 ------- null}
+ -t 0.125 -s 0 -d 2 -p cbr -e 1000 -c 1 -i 11 -a 1 -x {0.0 2.0 11 ------- null}
+ -t 0.13 -s 0 -d 2 -p cbr -e 1000 -c 1 -i 12 -a 1 -x {0.0 2.0 12 ------- null}
+ -t 0.13 -s 0 -d 2 -p cbr -e 1000 -c 1 -i 13 -a 1 -x {0.0 2.0 13 ------- null}
r -t 0.131 -s 0 -d 2 -p cbr -e 1000 -c 1 -i 1 -a 1 -x {0.0 2.0 1 ------- null}
- -t 0.132 -s 0 -d 2 -p cbr -e 1000 -c 1 -i 4 -a 1 -x {0.0 2.0 4 ------- null}
h -t 0.132 -s 0 -d 2 -p cbr -e 1000 -c 1 -i 4 -a 1 -x {0.0 2.0 -1 ------- null}
+ -t 0.135 -s 0 -d 2 -p cbr -e 1000 -c 1 -i 14 -a 1 -x {0.0 2.0 14 ------- null}
+ -t 0.135 -s 0 -d 2 -p cbr -e 1000 -c 1 -i 15 -a 1 -x {0.0 2.0 15 ------- null}
r -t 0.139 -s 0 -d 2 -p cbr -e 1000 -c 1 -i 2 -a 1 -x {0.0 2.0 2 ------- null}
- -t 0.14 -s 0 -d 2 -p cbr -e 1000 -c 1 -i 5 -a 1 -x {0.0 2.0 5 ------- null}
h -t 0.14 -s 0 -d 2 -p cbr -e 1000 -c 1 -i 5 -a 1 -x {0.0 2.0 -1 ------- null}
+ -t 0.14 -s 0 -d 2 -p cbr -e 1000 -c 1 -i 16 -a 1 -x {0.0 2.0 16 ------- null}
+ -t 0.14 -s 0 -d 2 -p cbr -e 1000 -c 1 -i 17 -a 1 -x {0.0 2.0 17 ------- null}
+ -t 0.145 -s 0 -d 2 -p cbr -e 1000 -c 1 -i 18 -a 1 -x {0.0 2.0 18 ------- null}
+ -t 0.145 -s 0 -d 2 -p cbr -e 1000 -c 1 -i 19 -a 1 -x {0.0 2.0 19 ------- null}
r -t 0.147 -s 0 -d 2 -p cbr -e 1000 -c 1 -i 3 -a 1 -x {0.0 2.0 3 ------- null}
- -t 0.148 -s 0 -d 2 -p cbr -e 1000 -c 1 -i 6 -a 1 -x {0.0 2.0 6 ------- null}
h -t 0.148 -s 0 -d 2 -p cbr -e 1000 -c 1 -i 6 -a 1 -x {0.0 2.0 -1 ------- null}
+ -t 0.15 -s 0 -d 2 -p cbr -e 1000 -c 1 -i 20 -a 1 -x {0.0 2.0 20 ------- null}
+ -t 0.15 -s 0 -d 2 -p cbr -e 1000 -c 1 -i 21 -a 1 -x {0.0 2.0 21 ------- null}
r -t 0.155 -s 0 -d 2 -p cbr -e 1000 -c 1 -i 4 -a 1 -x {0.0 2.0 4 ------- null}
+ -t 0.155 -s 0 -d 2 -p cbr -e 1000 -c 1 -i 22 -a 1 -x {0.0 2.0 22 ------- null}
+ -t 0.155 -s 0 -d 2 -p cbr -e 1000 -c 1 -i 23 -a 1 -x {0.0 2.0 23 ------- null}
- -t 0.156 -s 0 -d 2 -p cbr -e 1000 -c 1 -i 7 -a 1 -x {0.0 2.0 7 ------- null}
h -t 0.156 -s 0 -d 2 -p cbr -e 1000 -c 1 -i 7 -a 1 -x {0.0 2.0 -1 ------- null}
+ -t 0.16 -s 0 -d 2 -p cbr -e 1000 -c 1 -i 24 -a 1 -x {0.0 2.0 24 ------- null}
+ -t 0.16 -s 0 -d 2 -p cbr -e 1000 -c 1 -i 25 -a 1 -x {0.0 2.0 25 ------- null}
r -t 0.163 -s 0 -d 2 -p cbr -e 1000 -c 1 -i 5 -a 1 -x {0.0 2.0 5 ------- null}
- -t 0.164 -s 0 -d 2 -p cbr -e 1000 -c 1 -i 8 -a 1 -x {0.0 2.0 8 ------- null}
h -t 0.164 -s 0 -d 2 -p cbr -e 1000 -c 1 -i 8 -a 1 -x {0.0 2.0 -1 ------- null}
+ -t 0.165 -s 0 -d 2 -p cbr -e 1000 -c 1 -i 26 -a 1 -x {0.0 2.0 26 ------- null}
+ -t 0.165 -s 0 -d 2 -p cbr -e 1000 -c 1 -i 27 -a 1 -x {0.0 2.0 27 ------- null}
+ -t 0.17 -s 0 -d 2 -p cbr -e 1000 -c 1 -i 28 -a 1 -x {0.0 2.0 28 ------- null}
+ -t 0.17 -s 0 -d 2 -p cbr -e 1000 -c 1 -i 29 -a 1 -x {0.0 2.0 29 ------- null}
r -t 0.171 -s 0 -d 2 -p cbr -e 1000 -c 1 -i 6 -a 1 -x {0.0 2.0 6 ------- null}
- -t 0.172 -s 0 -d 2 -p cbr -e 1000 -c 1 -i 9 -a 1 -x {0.0 2.0 9 ------- null}
h -t 0.172 -s 0 -d 2 -p cbr -e 1000 -c 1 -i 9 -a 1 -x {0.0 2.0 -1 ------- null}
+ -t 0.175 -s 0 -d 2 -p cbr -e 1000 -c 1 -i 30 -a 1 -x {0.0 2.0 30 ------- null}
+ -t 0.175 -s 0 -d 2 -p cbr -e 1000 -c 1 -i 31 -a 1 -x {0.0 2.0 31 ------- null}
r -t 0.179 -s 0 -d 2 -p cbr -e 1000 -c 1 -i 7 -a 1 -x {0.0 2.0 7 ------- null}
- -t 0.18 -s 0 -d 2 -p cbr -e 1000 -c 1 -i 10 -a 1 -x {0.0 2.0 10 ------- null}
h -t 0.18 -s 0 -d 2 -p cbr -e 1000 -c 1 -i 10 -a 1 -x {0.0 2.0 -1 ------- null}
+ -t 0.18 -s 0 -d 2 -p cbr -e 1000 -c 1 -i 32 -a 1 -x {0.0 2.0 32 ------- null}
+ -t 0.18 -s 0 -d 2 -p cbr -e 1000 -c 1 -i 33 -a 1 -x {0.0 2.0 33 ------- null}
+ -t 0.185 -s 0 -d 2 -p cbr -e 1000 -c 1 -i 34 -a 1 -x {0.0 2.0 34 ------- null}
+ -t 0.185 -s 0 -d 2 -p cbr -e 1000 -c 1 -i 35 -a 1 -x {0.0 2.0 35 ------- null}
r -t 0.187 -s 0 -d 2 -p cbr -e 1000 -c 1 -i 8 -a 1 -x {0.0 2.0 8 ------- null}
- -t 0.188 -s 0 -d 2 -p cbr -e 1000 -c 1 -i 11 -a 1 -x {0.0 2.0 11 ------- null}
h -t 0.188 -s 0 -d 2 -p cbr -e 1000 -c 1 -i 11 -a 1 -x {0.0 2.0 -1 ------- null}
+ -t 0.19 -s 0 -d 2 -p cbr -e 1000 -c 1 -i 36 -a 1 -x {0.0 2.0 36 ------- null}
+ -t 0.19 -s 0 -d 2 -p cbr -e 1000 -c 1 -i 37 -a 1 -x {0.0 2.0 37 ------- null}
r -t 0.195 -s 0 -d 2 -p cbr -e 1000 -c 1 -i 9 -a 1 -x {0.0 2.0 9 ------- null}
+ -t 0.195 -s 0 -d 2 -p cbr -e 1000 -c 1 -i 38 -a 1 -x {0.0 2.0 38 ------- null}
+ -t 0.195 -s 0 -d 2 -p cbr -e 1000 -c 1 -i 39 -a 1 -x {0.0 2.0 39 ------- null}
- -t 0.196 -s 0 -d 2 -p cbr -e 1000 -c 1 -i 12 -a 1 -x {0.0 2.0 12 ------- null}
h -t 0.196 -s 0 -d 2 -p cbr -e 1000 -c 1 -i 12 -a 1 -x {0.0 2.0 -1 ------- null}
+ -t 0.2 -s 1 -d 2 -p cbr -e 1000 -c 2 -i 40 -a 2 -x {1.0 2.0 0 ------- null}
- -t 0.2 -s 1 -d 2 -p cbr -e 1000 -c 2 -i 40 -a 2 -x {1.0 2.0 0 ------- null}
h -t 0.2 -s 1 -d 2 -p cbr -e 1000 -c 2 -i 40 -a 2 -x {1.0 2.0 -1 ------- null}
+ -t 0.2 -s 1 -d 2 -p cbr -e 500 -c 2 -i 41 -a 2 -x {1.0 2.0 1 ------- null}
+ -t 0.2 -s 0 -d 2 -p cbr -e 1000 -c 1 -i 42 -a 1 -x {0.0 2.0 40 ------- null}
+ -t 0.2 -s 0 -d 2 -p cbr -e 1000 -c 1 -i 43 -a 1 -x {0.0 2.0 41 ------- null}
r -t 0.203 -s 0 -d 2 -p cbr -e 1000 -c 1 -i 10 -a 1 -x {0.0 2.0 10 ------- null}
- -t 0.204 -s 0 -d 2 -p cbr -e 1000 -c 1 -i 13 -a 1 -x {0.0 2.0 13 ------- null}
h -t 0.204 -s 0 -d 2 -p cbr -e 1000 -c 1 -i 13 -a 1 -x {0.0 2.0 -1 ------- null}
+ -t 0.205 -s 1 -d 2 -p cbr -e 1000 -c 2 -i 44 -a 2 -x {1.0 2.0 2 ------- null}
+ -t 0.205 -s 1 -d 2 -p cbr -e 500 -c 2 -i 45 -a 2 -x {1.0 2.0 3 ------- null}
+ -t 0.205 -s 0 -d 2 -p cbr -e 1000 -c 1 -i 46 -a 1 -x {0.0 2.0 42 ------- null}
+ -t 0.205 -s 0 -d 2 -p cbr -e 1000 -c 1 -i 47 -a 1 -x {0.0 2.0 43 ------- null}
+ -t 0.21 -s 1 -d 2 -p cbr -e 1000 -c 2 -i 48 -a 2 -x {1.0 2.0 4 ------- null}
+ -t 0.21 -s 1 -d 2 -p cbr -e 500 -c 2 -i 49 -a 2 -x {1.0 2.0 5 ------- null}
+ -t 0.21 -s 0 -d 2 -p cbr -e 1000 -c 1 -i 50 -a 1 -x {0.0 2.0 44 ------- null}
+ -t 0.21 -s 0 -d 2 -p cbr -e 1000 -c 1 -i 51 -a 1 -x {0.0 2.0 45 ------- null}
r -t 0.211 -s 0 -d 2 -p cbr -e 1000 -c 1 -i 11 -a 1 -x {0.0 2.0 11 ------- null}
- -t 0.212 -s 0 -d 2 -p cbr -e 1000 -c 1 -i 14 -a 1 -x {0.0 2.0 14 ------- null}
h -t 0.212 -s 0 -d 2 -p cbr -e 1000 -c 1 -i 14 -a 1 -x {0.0 2.0 -1 ------- null}
+ -t 0.215 -s 1 -d 2 -p cbr -e 1000 -c 2 -i 52 -a 2 -x {1.0 2.0 6 ------- null}
+ -t 0.215 -s 1 -d 2 -p cbr -e 500 -c 2 -i 53 -a 2 -x {1.0 2.0 7 ------- null}
+ -t 0.215 -s 0 -d 2 -p cbr -e 1000 -c 1 -i 54 -a 1 -x {0.0 2.0 46 ------- null}
+ -t 0.215 -s 0 -d 2 -p cbr -e 1000 -c 1 -i 55 -a 1 -x {0.0 2.0 47 ------- null}
- -t 0.216 -s 1 -d 2 -p cbr -e 500 -c 2 -i 41 -a 2 -x {1.0 2.0 1 ------- null}
h -t 0.216 -s 1 -d 2 -p cbr -e 500 -c 2 -i 41 -a 2 -x {1.0 2.0 -1 ------- null}
r -t 0.219 -s 0 -d 2 -p cbr -e 1000 -c 1 -i 12 -a 1 -x {0.0 2.0 12 ------- null}
+ -t 0.22 -s 1 -d 2 -p cbr -e 1000 -c 2 -i 56 -a 2 -x {1.0 2.0 8 ------- null}
+ -t 0.22 -s 1 -d 2 -p cbr -e 500 -c 2 -i 57 -a 2 -x {1.0 2.0 9 ------- null}
- -t 0.22 -s 0 -d 2 -p cbr -e 1000 -c 1 -i 15 -a 1 -x {0.0 2.0 15 ------- null}
h -t 0.22 -s 0 -d 2 -p cbr -e 1000 -c 1 -i 15 -a 1 -x {0.0 2.0 -1 ------- null}
+ -t 0.22 -s 0 -d 2 -p cbr -e 1000 -c 1 -i 58 -a 1 -x {0.0 2.0 48 ------- null}
+ -t 0.22 -s 0 -d 2 -p cbr -e 1000 -c 1 -i 59 -a 1 -x {0.0 2.0 49 ------- null}
- -t 0.224 -s 1 -d 2 -p cbr -e 1000 -c 2 -i 44 -a 2 -x {1.0 2.0 2 ------- null}
h -t 0.224 -s 1 -d 2 -p cbr -e 1000 -c 2 -i 44 -a 2 -x {1.0 2.0 -1 ------- null}
+ -t 0.225 -s 1 -d 2 -p cbr -e 1000 -c 2 -i 60 -a 2 -x {1.0 2.0 10 ------- null}
+ -t 0.225 -s 1 -d 2 -p cbr -e 500 -c 2 -i 61 -a 2 -x {1.0 2.0 11 ------- null}
+ -t 0.225 -s 0 -d 2 -p cbr -e 1000 -c 1 -i 62 -a 1 -x {0.0 2.0 50 ------- null}
+ -t 0.225 -s 0 -d 2 -p cbr -e 1000 -c 1 -i 63 -a 1 -x {0.0 2.0 51 ------- null}
r -t 0.227 -s 0 -d 2 -p cbr -e 1000 -c 1 -i 13 -a 1 -x {0.0 2.0 13 ------- null}
- -t 0.228 -s 0 -d 2 -p cbr -e 1000 -c 1 -i 16 -a 1 -x {0.0 2.0 16 ------- null}
h -t 0.228 -s 0 -d 2 -p cbr -e 1000 -c 1 -i 16 -a 1 -x {0.0 2.0 -1 ------- null}
+ -t 0.23 -s 1 -d 2 -p cbr -e 1000 -c 2 -i 64 -a 2 -x {1.0 2.0 12 ------- null}
+ -t 0.23 -s 1 -d 2 -p cbr -e 500 -c 2 -i 65 -a 2 -x {1.0 2.0 13 ------- null}
+ -t 0.23 -s 0 -d 2 -p cbr -e 1000 -c 1 -i 66 -a 1 -x {0.0 2.0 52 ------- null}
+ -t 0.23 -s 0 -d 2 -p cbr -e 1000 -c 1 -i 67 -a 1 -x {0.0 2.0 53 ------- null}
r -t 0.231 -s 1 -d 2 -p cbr -e 1000 -c 2 -i 40 -a 2 -x {1.0 2.0 0 ------- null}
+ -t 0.235 -s 1 -d 2 -p cbr -e 1000 -c 2 -i 68 -a 2 -x {1.0 2.0 14 ------- null}
+ -t 0.235 -s 1 -d 2 -p cbr -e 500 -c 2 -i 69 -a 2 -x {1.0 2.0 15 ------- null}
r -t 0.235 -s 0 -d 2 -p cbr -e 1000 -c 1 -i 14 -a 1 -x {0.0 2.0 14 ------- null}
+ -t 0.235 -s 0 -d 2 -p cbr -e 1000 -c 1 -i 70 -a 1 -x {0.0 2.0 54 ------- null}
+ -t 0.235 -s 0 -d 2 -p cbr -e 1000 -c 1 -i 71 -a 1 -x {0.0 2.0 55 ------- null}
- -t 0.236 -s 0 -d 2 -p cbr -e 1000 -c 1 -i 17 -a 1 -x {0.0 2.0 17 ------- null}
h -t 0.236 -s 0 -d 2 -p cbr -e 1000 -c 1 -i 17 -a 1 -x {0.0 2.0 -1 ------- null}
r -t 0.239 -s 1 -d 2 -p cbr -e 500 -c 2 -i 41 -a 2 -x {1.0 2.0 1 ------- null}
- -t 0.24 -s 1 -d 2 -p cbr -e 500 -c 2 -i 45 -a 2 -x {1.0 2.0 3 ------- null}
h -t 0.24 -s 1 -d 2 -p cbr -e 500 -c 2 -i 45 -a 2 -x {1.0 2.0 -1 ------- null}
+ -t 0.24 -s 1 -d 2 -p cbr -e 1000 -c 2 -i 72 -a 2 -x {1.0 2.0 16 ------- null}
+ -t 0.24 -s 1 -d 2 -p cbr -e 500 -c 2 -i 73 -a 2 -x {1.0 2.0 17 ------- null}
+ -t 0.24 -s 0 -d 2 -p cbr -e 1000 -c 1 -i 74 -a 1 -x {0.0 2.0 56 ------- null}
+ -t 0.24 -s 0 -d 2 -p cbr -e 1000 -c 1 -i 75 -a 1 -x {0.0 2.0 57 ------- null}
r -t 0.243 -s 0 -d 2 -p cbr -e 1000 -c 1 -i 15 -a 1 -x {0.0 2.0 15 ------- null}
- -t 0.244 -s 0 -d 2 -p cbr -e 1000 -c 1 -i 18 -a 1 -x {0.0 2.0 18 ------- null}
h -t 0.244 -s 0 -d 2 -p cbr -e 1000 -c 1 -i 18 -a 1 -x {0.0 2.0 -1 ------- null}
+ -t 0.245 -s 1 -d 2 -p cbr -e 1000 -c 2 -i 76 -a 2 -x {1.0 2.0 18 ------- null}
+ -t 0.245 -s 1 -d 2 -p cbr -e 500 -c 2 -i 77 -a 2 -x {1.0 2.0 19 ------- null}
+ -t 0.245 -s 0 -d 2 -p cbr -e 1000 -c 1 -i 78 -a 1 -x {0.0 2.0 58 ------- null}
+ -t 0.245 -s 0 -d 2 -p cbr -e 1000 -c 1 -i 79 -a 1 -x {0.0 2.0 59 ------- null}
- -t 0.248 -s 1 -d 2 -p cbr -e 1000 -c 2 -i 48 -a 2 -x {1.0 2.0 4 ------- null}
h -t 0.248 -s 1 -d 2 -p cbr -e 1000 -c 2 -i 48 -a 2 -x {1.0 2.0 -1 ------- null}
+ -t 0.25 -s 1 -d 2 -p cbr -e 1000 -c 2 -i 80 -a 2 -x {1.0 2.0 20 ------- null}
+ -t 0.25 -s 1 -d 2 -p cbr -e 500 -c 2 -i 81 -a 2 -x {1.0 2.0 21 ------- null}
+ -t 0.25 -s 0 -d 2 -p cbr -e 1000 -c 1 -i 82 -a 1 -x {0.0 2.0 60 ------- null}
+ -t 0.25 -s 0 -d 2 -p cbr -e 1000 -c 1 -i 83 -a 1 -x {0.0 2.0 61 ------- null}
r -t 0.251 -s 0 -d 2 -p cbr -e 1000 -c 1 -i 16 -a 1 -x {0.0 2.0 16 ------- null}
- -t 0.252 -s 0 -d 2 -p cbr -e 1000 -c 1 -i 19 -a 1 -x {0.0 2.0 19 ------- null}
h -t 0.252 -s 0 -d 2 -p cbr -e 1000 -c 1 -i 19 -a 1 -x {0.0 2.0 -1 ------- null}
r -t 0.255 -s 1 -d 2 -p cbr -e 1000 -c 2 -i 44 -a 2 -x {1.0 2.0 2 ------- null}
+ -t 0.255 -s 1 -d 2 -p cbr -e 1000 -c 2 -i 84 -a 2 -x {1.0 2.0 22 ------- null}
+ -t 0.255 -s 1 -d 2 -p cbr -e 500 -c 2 -i 85 -a 2 -x {1.0 2.0 23 ------- null}
+ -t 0.255 -s 0 -d 2 -p cbr -e 1000 -c 1 -i 86 -a 1 -x {0.0 2.0 62 ------- null}
+ -t 0.255 -s 0 -d 2 -p cbr -e 1000 -c 1 -i 87 -a 1 -x {0.0 2.0 63 ------- null}
r -t 0.259 -s 0 -d 2 -p cbr -e 1000 -c 1 -i 17 -a 1 -x {0.0 2.0 17 ------- null}
+ -t 0.26 -s 1 -d 2 -p cbr -e 1000 -c 2 -i 88 -a 2 -x {1.0 2.0 24 ------- null}
+ -t 0.26 -s 1 -d 2 -p cbr -e 500 -c 2 -i 89 -a 2 -x {1.0 2.0 25 ------- null}
- -t 0.26 -s 0 -d 2 -p cbr -e 1000 -c 1 -i 20 -a 1 -x {0.0 2.0 20 ------- null}
h -t 0.26 -s 0 -d 2 -p cbr -e 1000 -c 1 -i 20 -a 1 -x {0.0 2.0 -1 ------- null}
+ -t 0.26 -s 0 -d 2 -p cbr -e 1000 -c 1 -i 90 -a 1 -x {0.0 2.0 64 ------- null}
+ -t 0.26 -s 0 -d 2 -p cbr -e 1000 -c 1 -i 91 -a 1 -x {0.0 2.0 65 ------- null}
r -t 0.263 -s 1 -d 2 -p cbr -e 500 -c 2 -i 45 -a 2 -x {1.0 2.0 3 ------- null}
- -t 0.264 -s 1 -d 2 -p cbr -e 500 -c 2 -i 49 -a 2 -x {1.0 2.0 5 ------- null}
h -t 0.264 -s 1 -d 2 -p cbr -e 500 -c 2 -i 49 -a 2 -x {1.0 2.0 -1 ------- null}
+ -t 0.265 -s 1 -d 2 -p cbr -e 1000 -c 2 -i 92 -a 2 -x {1.0 2.0 26 ------- null}
+ -t 0.265 -s 1 -d 2 -p cbr -e 500 -c 2 -i 93 -a 2 -x {1.0 2.0 27 ------- null}
+ -t 0.265 -s 0 -d 2 -p cbr -e 1000 -c 1 -i 94 -a 1 -x {0.0 2.0 66 ------- null}
+ -t 0.265 -s 0 -d 2 -p cbr -e 1000 -c 1 -i 95 -a 1 -x {0.0 2.0 67 ------- null}
r -t 0.267 -s 0 -d 2 -p cbr -e 1000 -c 1 -i 18 -a 1 -x {0.0 2.0 18 ------- null}
- -t 0.268 -s 0 -d 2 -p cbr -e 1000 -c 1 -i 21 -a 1 -x {0.0 2.0 21 ------- null}
h -t 0.268 -s 0 -d 2 -p cbr -e 1000 -c 1 -i 21 -a 1 -x {0.0 2.0 -1 ------- null}
+ -t 0.27 -s 1 -d 2 -p cbr -e 1000 -c 2 -i 96 -a 2 -x {1.0 2.0 28 ------- null}
+ -t 0.27 -s 1 -d 2 -p cbr -e 500 -c 2 -i 97 -a 2 -x {1.0 2.0 29 ------- null}
+ -t 0.27 -s 0 -d 2 -p cbr -e 1000 -c 1 -i 98 -a 1 -x {0.0 2.0 68 ------- null}
+ -t 0.27 -s 0 -d 2 -p cbr -e 1000 -c 1 -i 99 -a 1 -x {0.0 2.0 69 ------- null}
- -t 0.272 -s 1 -d 2 -p cbr -e 1000 -c 2 -i 52 -a 2 -x {1.0 2.0 6 ------- null}
h -t 0.272 -s 1 -d 2 -p cbr -e 1000 -c 2 -i 52 -a 2 -x {1.0 2.0 -1 ------- null}
+ -t 0.275 -s 1 -d 2 -p cbr -e 1000 -c 2 -i 100 -a 2 -x {1.0 2.0 30 ------- null}
+ -t 0.275 -s 1 -d 2 -p cbr -e 500 -c 2 -i 101 -a 2 -x {1.0 2.0 31 ------- null}
r -t 0.275 -s 0 -d 2 -p cbr -e 1000 -c 1 -i 19 -a 1 -x {0.0 2.0 19 ------- null}
+ -t 0.275 -s 0 -d 2 -p cbr -e 1000 -c 1 -i 102 -a 1 -x {0.0 2.0 70 ------- null}
+ -t 0.275 -s 0 -d 2 -p cbr -e 1000 -c 1 -i 103 -a 1 -x {0.0 2.0 71 ------- null}
d -t 0.275 -s 0 -d 2 -p cbr -e 1000 -c 1 -i 103 -a 1 -x {0.0 2.0 71 ------- null}
- -t 0.276 -s 0 -d 2 -p cbr -e 1000 -c 1 -i 22 -a 1 -x {0.0 2.0 22 ------- null}
h -t 0.276 -s 0 -d 2 -p cbr -e 1000 -c 1 -i 22 -a 1 -x {0.0 2.0 -1 ------- null}
r -t 0.279 -s 1 -d 2 -p cbr -e 1000 -c 2 -i 48 -a 2 -x {1.0 2.0 4 ------- null}
+ -t 0.28 -s 1 -d 2 -p cbr -e 1000 -c 2 -i 104 -a 2 -x {1.0 2.0 32 ------- null}
+ -t 0.28 -s 1 -d 2 -p cbr -e 500 -c 2 -i 105 -a 2 -x {1.0 2.0 33 ------- null}
+ -t 0.28 -s 0 -d 2 -p cbr -e 1000 -c 1 -i 106 -a 1 -x {0.0 2.0 72 ------- null}
+ -t 0.28 -s 0 -d 2 -p cbr -e 1000 -c 1 -i 107 -a 1 -x {0.0 2.0 73 ------- null}
d -t 0.28 -s 0 -d 2 -p cbr -e 1000 -c 1 -i 107 -a 1 -x {0.0 2.0 73 ------- null}
r -t 0.283 -s 0 -d 2 -p cbr -e 1000 -c 1 -i 20 -a 1 -x {0.0 2.0 20 ------- null}
- -t 0.284 -s 0 -d 2 -p cbr -e 1000 -c 1 -i 23 -a 1 -x {0.0 2.0 23 ------- null}
h -t 0.284 -s 0 -d 2 -p cbr -e 1000 -c 1 -i 23 -a 1 -x {0.0 2.0 -1 ------- null}
+ -t 0.285 -s 1 -d 2 -p cbr -e 1000 -c 2 -i 108 -a 2 -x {1.0 2.0 34 ------- null}
+ -t 0.285 -s 1 -d 2 -p cbr -e 500 -c 2 -i 109 -a 2 -x {1.0 2.0 35 ------- null}
+ -t 0.285 -s 0 -d 2 -p cbr -e 1000 -c 1 -i 110 -a 1 -x {0.0 2.0 74 ------- null}
+ -t 0.285 -s 0 -d 2 -p cbr -e 1000 -c 1 -i 111 -a 1 -x {0.0 2.0 75 ------- null}
d -t 0.285 -s 0 -d 2 -p cbr -e 1000 -c 1 -i 111 -a 1 -x {0.0 2.0 75 ------- null}
r -t 0.287 -s 1 -d 2 -p cbr -e 500 -c 2 -i 49 -a 2 -x {1.0 2.0 5 ------- null}
- -t 0.288 -s 1 -d 2 -p cbr -e 500 -c 2 -i 53 -a 2 -x {1.0 2.0 7 ------- null}
h -t 0.288 -s 1 -d 2 -p cbr -e 500 -c 2 -i 53 -a 2 -x {1.0 2.0 -1 ------- null}
+ -t 0.29 -s 1 -d 2 -p cbr -e 1000 -c 2 -i 112 -a 2 -x {1.0 2.0 36 ------- null}
+ -t 0.29 -s 1 -d 2 -p cbr -e 500 -c 2 -i 113 -a 2 -x {1.0 2.0 37 ------- null}
+ -t 0.29 -s 0 -d 2 -p cbr -e 1000 -c 1 -i 114 -a 1 -x {0.0 2.0 76 ------- null}
d -t 0.29 -s 0 -d 2 -p cbr -e 1000 -c 1 -i 114 -a 1 -x {0.0 2.0 76 ------- null}
+ -t 0.29 -s 0 -d 2 -p cbr -e 1000 -c 1 -i 115 -a 1 -x {0.0 2.0 77 ------- null}
d -t 0.29 -s 0 -d 2 -p cbr -e 1000 -c 1 -i 115 -a 1 -x {0.0 2.0 77 ------- null}
r -t 0.291 -s 0 -d 2 -p cbr -e 1000 -c 1 -i 21 -a 1 -x {0.0 2.0 21 ------- null}
- -t 0.292 -s 0 -d 2 -p cbr -e 1000 -c 1 -i 24 -a 1 -x {0.0 2.0 24 ------- null}
h -t 0.292 -s 0 -d 2 -p cbr -e 1000 -c 1 -i 24 -a 1 -x {0.0 2.0 -1 ------- null}
+ -t 0.295 -s 1 -d 2 -p cbr -e 1000 -c 2 -i 116 -a 2 -x {1.0 2.0 38 ------- null}
+ -t 0.295 -s 1 -d 2 -p cbr -e 500 -c 2 -i 117 -a 2 -x {1.0 2.0 39 ------- null}
+ -t 0.295 -s 0 -d 2 -p cbr -e 1000 -c 1 -i 118 -a 1 -x {0.0 2.0 78 ------- null}
+ -t 0.295 -s 0 -d 2 -p cbr -e 1000 -c 1 -i 119 -a 1 -x {0.0 2.0 79 ------- null}
d -t 0.295 -s 0 -d 2 -p cbr -e 1000 -c 1 -i 119 -a 1 -x {0.0 2.0 79 ------- null}
- -t 0.296 -s 1 -d 2 -p cbr -e 1000 -c 2 -i 56 -a 2 -x {1.0 2.0 8 ------- null}
h -t 0.296 -s 1 -d 2 -p cbr -e 1000 -c 2 -i 56 -a 2 -x {1.0 2.0 -1 ------- null}
r -t 0.299 -s 0 -d 2 -p cbr -e 1000 -c 1 -i 22 -a 1 -x {0.0 2.0 22 ------- null}
+ -t 0.3 -s 1 -d 2 -p cbr -e 1000 -c 2 -i 120 -a 2 -x {1.0 2.0 40 ------- null}
+ -t 0.3 -s 1 -d 2 -p cbr -e 500 -c 2 -i 121 -a 2 -x {1.0 2.0 41 ------- null}
- -t 0.3 -s 0 -d 2 -p cbr -e 1000 -c 1 -i 25 -a 1 -x {0.0 2.0 25 ------- null}
h -t 0.3 -s 0 -d 2 -p cbr -e 1000 -c 1 -i 25 -a 1 -x {0.0 2.0 -1 ------- null}
+ -t 0.3 -s 0 -d 2 -p cbr -e 1000 -c 1 -i 122 -a 1 -x {0.0 2.0 80 ------- null}
+ -t 0.3 -s 0 -d 2 -p cbr -e 1000 -c 1 -i 123 -a 1 -x {0.0 2.0 81 ------- null}
d -t 0.3 -s 0 -d 2 -p cbr -e 1000 -c 1 -i 123 -a 1 -x {0.0 2.0 81 ------- null}
r -t 0.303 -s 1 -d 2 -p cbr -e 1000 -c 2 -i 52 -a 2 -x {1.0 2.0 6 ------- null}
+ -t 0.305 -s 1 -d 2 -p cbr -e 1000 -c 2 -i 124 -a 2 -x {1.0 2.0 42 ------- null}
+ -t 0.305 -s 1 -d 2 -p cbr -e 500 -c 2 -i 125 -a 2 -x {1.0 2.0 43 ------- null}
+ -t 0.305 -s 0 -d 2 -p cbr -e 1000 -c 1 -i 126 -a 1 -x {0.0 2.0 82 ------- null}
d -t 0.305 -s 0 -d 2 -p cbr -e 1000 -c 1 -i 126 -a 1 -x {0.0 2.0 82 ------- null}
+ -t 0.305 -s 0 -d 2 -p cbr -e 1000 -c 1 -i 127 -a 1 -x {0.0 2.0 83 ------- null}
d -t 0.305 -s 0 -d 2 -p cbr -e 1000 -c 1 -i 127 -a 1 -x {0.0 2.0 83 ------- null}
r -t 0.307 -s 0 -d 2 -p cbr -e 1000 -c 1 -i 23 -a 1 -x {0.0 2.0 23 ------- null}
- -t 0.308 -s 0 -d 2 -p cbr -e 1000 -c 1 -i 26 -a 1 -x {0.0 2.0 26 ------- null}
h -t 0.308 -s 0 -d 2 -p cbr -e 1000 -c 1 -i 26 -a 1 -x {0.0 2.0 -1 ------- null}
+ -t 0.31 -s 1 -d 2 -p cbr -e 1000 -c 2 -i 128 -a 2 -x {1.0 2.0 44 ------- null}
+ -t 0.31 -s 1 -d 2 -p cbr -e 500 -c 2 -i 129 -a 2 -x {1.0 2.0 45 ------- null}
+ -t 0.31 -s 0 -d 2 -p cbr -e 1000 -c 1 -i 130 -a 1 -x {0.0 2.0 84 ------- null}
+ -t 0.31 -s 0 -d 2 -p cbr -e 1000 -c 1 -i 131 -a 1 -x {0.0 2.0 85 ------- null}
d -t 0.31 -s 0 -d 2 -p cbr -e 1000 -c 1 -i 131 -a 1 -x {0.0 2.0 85 ------- null}
r -t 0.311 -s 1 -d 2 -p cbr -e 500 -c 2 -i 53 -a 2 -x {1.0 2.0 7 ------- null}
- -t 0.312 -s 1 -d 2 -p cbr -e 500 -c 2 -i 57 -a 2 -x {1.0 2.0 9 ------- null}
h -t 0.312 -s 1 -d 2 -p cbr -e 500 -c 2 -i 57 -a 2 -x {1.0 2.0 -1 ------- null}
+ -t 0.315 -s 1 -d 2 -p cbr -e 1000 -c 2 -i 132 -a 2 -x {1.0 2.0 46 ------- null}
+ -t 0.315 -s 1 -d 2 -p cbr -e 500 -c 2 -i 133 -a 2 -x {1.0 2.0 47 ------- null}
r -t 0.315 -s 0 -d 2 -p cbr -e 1000 -c 1 -i 24 -a 1 -x {0.0 2.0 24 ------- null}
+ -t 0.315 -s 0 -d 2 -p cbr -e 1000 -c 1 -i 134 -a 1 -x {0.0 2.0 86 ------- null}
d -t 0.315 -s 0 -d 2 -p cbr -e 1000 -c 1 -i 134 -a 1 -x {0.0 2.0 86 ------- null}
+ -t 0.315 -s 0 -d 2 -p cbr -e 1000 -c 1 -i 135 -a 1 -x {0.0 2.0 87 ------- null}
d -t 0.315 -s 0 -d 2 -p cbr -e 1000 -c 1 -i 135 -a 1 -x {0.0 2.0 87 ------- null}
- -t 0.316 -s 0 -d 2 -p cbr -e 1000 -c 1 -i 27 -a 1 -x {0.0 2.0 27 ------- null}
h -t 0.316 -s 0 -d 2 -p cbr -e 1000 -c 1 -i 27 -a 1 -x {0.0 2.0 -1 ------- null}
- -t 0.32 -s 1 -d 2 -p cbr -e 1000 -c 2 -i 60 -a 2 -x {1.0 2.0 10 ------- null}
h -t 0.32 -s 1 -d 2 -p cbr -e 1000 -c 2 -i 60 -a 2 -x {1.0 2.0 -1 ------- null}
+ -t 0.32 -s 1 -d 2 -p cbr -e 1000 -c 2 -i 136 -a 2 -x {1.0 2.0 48 ------- null}
+ -t 0.32 -s 1 -d 2 -p cbr -e 500 -c 2 -i 137 -a 2 -x {1.0 2.0 49 ------- null}
+ -t 0.32 -s 0 -d 2 -p cbr -e 1000 -c 1 -i 138 -a 1 -x {0.0 2.0 88 ------- null}
+ -t 0.32 -s 0 -d 2 -p cbr -e 1000 -c 1 -i 139 -a 1 -x {0.0 2.0 89 ------- null}
d -t 0.32 -s 0 -d 2 -p cbr -e 1000 -c 1 -i 139 -a 1 -x {0.0 2.0 89 ------- null}
r -t 0.323 -s 0 -d 2 -p cbr -e 1000 -c 1 -i 25 -a 1 -x {0.0 2.0 25 ------- null}
- -t 0.324 -s 0 -d 2 -p cbr -e 1000 -c 1 -i 28 -a 1 -x {0.0 2.0 28 ------- null}
h -t 0.324 -s 0 -d 2 -p cbr -e 1000 -c 1 -i 28 -a 1 -x {0.0 2.0 -1 ------- null}
+ -t 0.325 -s 1 -d 2 -p cbr -e 1000 -c 2 -i 140 -a 2 -x {1.0 2.0 50 ------- null}
+ -t 0.325 -s 1 -d 2 -p cbr -e 500 -c 2 -i 141 -a 2 -x {1.0 2.0 51 ------- null}
+ -t 0.325 -s 0 -d 2 -p cbr -e 1000 -c 1 -i 142 -a 1 -x {0.0 2.0 90 ------- null}
+ -t 0.325 -s 0 -d 2 -p cbr -e 1000 -c 1 -i 143 -a 1 -x {0.0 2.0 91 ------- null}
d -t 0.325 -s 0 -d 2 -p cbr -e 1000 -c 1 -i 143 -a 1 -x {0.0 2.0 91 ------- null}
r -t 0.327 -s 1 -d 2 -p cbr -e 1000 -c 2 -i 56 -a 2 -x {1.0 2.0 8 ------- null}
+ -t 0.33 -s 1 -d 2 -p cbr -e 1000 -c 2 -i 144 -a 2 -x {1.0 2.0 52 ------- null}
+ -t 0.33 -s 1 -d 2 -p cbr -e 500 -c 2 -i 145 -a 2 -x {1.0 2.0 53 ------- null}
+ -t 0.33 -s 0 -d 2 -p cbr -e 1000 -c 1 -i 146 -a 1 -x {0.0 2.0 92 ------- null}
d -t 0.33 -s 0 -d 2 -p cbr -e 1000 -c 1 -i 146 -a 1 -x {0.0 2.0 92 ------- null}
+ -t 0.33 -s 0 -d 2 -p cbr -e 1000 -c 1 -i 147 -a 1 -x {0.0 2.0 93 ------- null}
d -t 0.33 -s 0 -d 2 -p cbr -e 1000 -c 1 -i 147 -a 1 -x {0.0 2.0 93 ------- null}
r -t 0.331 -s 0 -d 2 -p cbr -e 1000 -c 1 -i 26 -a 1 -x {0.0 2.0 26 ------- null}
- -t 0.332 -s 0 -d 2 -p cbr -e 1000 -c 1 -i 29 -a 1 -x {0.0 2.0 29 ------- null}
h -t 0.332 -s 0 -d 2 -p cbr -e 1000 -c 1 -i 29 -a 1 -x {0.0 2.0 -1 ------- null}
r -t 0.335 -s 1 -d 2 -p cbr -e 500 -c 2 -i 57 -a 2 -x {1.0 2.0 9 ------- null}
+ -t 0.335 -s 1 -d 2 -p cbr -e 1000 -c 2 -i 148 -a 2 -x {1.0 2.0 54 ------- null}
+ -t 0.335 -s 1 -d 2 -p cbr -e 500 -c 2 -i 149 -a 2 -x {1.0 2.0 55 ------- null}
+ -t 0.335 -s 0 -d 2 -p cbr -e 1000 -c 1 -i 150 -a 1 -x {0.0 2.0 94 ------- null}
+ -t 0.335 -s 0 -d 2 -p cbr -e 1000 -c 1 -i 151 -a 1 -x {0.0 2.0 95 ------- null}
d -t 0.335 -s 0 -d 2 -p cbr -e 1000 -c 1 -i 151 -a 1 -x {0.0 2.0 95 ------- null}
- -t 0.336 -s 1 -d 2 -p cbr -e 500 -c 2 -i 61 -a 2 -x {1.0 2.0 11 ------- null}
h -t 0.336 -s 1 -d 2 -p cbr -e 500 -c 2 -i 61 -a 2 -x {1.0 2.0 -1 ------- null}
r -t 0.339 -s 0 -d 2 -p cbr -e 1000 -c 1 -i 27 -a 1 -x {0.0 2.0 27 ------- null}
+ -t 0.34 -s 1 -d 2 -p cbr -e 1000 -c 2 -i 152 -a 2 -x {1.0 2.0 56 ------- null}
+ -t 0.34 -s 1 -d 2 -p cbr -e 500 -c 2 -i 153 -a 2 -x {1.0 2.0 57 ------- null}
- -t 0.34 -s 0 -d 2 -p cbr -e 1000 -c 1 -i 30 -a 1 -x {0.0 2.0 30 ------- null}
h -t 0.34 -s 0 -d 2 -p cbr -e 1000 -c 1 -i 30 -a 1 -x {0.0 2.0 -1 ------- null}
+ -t 0.34 -s 0 -d 2 -p cbr -e 1000 -c 1 -i 154 -a 1 -x {0.0 2.0 96 ------- null}
+ -t 0.34 -s 0 -d 2 -p cbr -e 1000 -c 1 -i 155 -a 1 -x {0.0 2.0 97 ------- null}
d -t 0.34 -s 0 -d 2 -p cbr -e 1000 -c 1 -i 155 -a 1 -x {0.0 2.0 97 ------- null}
- -t 0.344 -s 1 -d 2 -p cbr -e 1000 -c 2 -i 64 -a 2 -x {1.0 2.0 12 ------- null}
h -t 0.344 -s 1 -d 2 -p cbr -e 1000 -c 2 -i 64 -a 2 -x {1.0 2.0 -1 ------- null}
+ -t 0.345 -s 1 -d 2 -p cbr -e 1000 -c 2 -i 156 -a 2 -x {1.0 2.0 58 ------- null}
+ -t 0.345 -s 1 -d 2 -p cbr -e 500 -c 2 -i 157 -a 2 -x {1.0 2.0 59 ------- null}
+ -t 0.345 -s 0 -d 2 -p cbr -e 1000 -c 1 -i 158 -a 1 -x {0.0 2.0 98 ------- null}
d -t 0.345 -s 0 -d 2 -p cbr -e 1000 -c 1 -i 158 -a 1 -x {0.0 2.0 98 ------- null}
+ -t 0.345 -s 0 -d 2 -p cbr -e 1000 -c 1 -i 159 -a 1 -x {0.0 2.0 99 ------- null}
d -t 0.345 -s 0 -d 2 -p cbr -e 1000 -c 1 -i 159 -a 1 -x {0.0 2.0 99 ------- null}
r -t 0.347 -s 0 -d 2 -p cbr -e 1000 -c 1 -i 28 -a 1 -x {0.0 2.0 28 ------- null}
- -t 0.348 -s 0 -d 2 -p cbr -e 1000 -c 1 -i 31 -a 1 -x {0.0 2.0 31 ------- null}
h -t 0.348 -s 0 -d 2 -p cbr -e 1000 -c 1 -i 31 -a 1 -x {0.0 2.0 -1 ------- null}
+ -t 0.35 -s 1 -d 2 -p cbr -e 1000 -c 2 -i 160 -a 2 -x {1.0 2.0 60 ------- null}
+ -t 0.35 -s 1 -d 2 -p cbr -e 500 -c 2 -i 161 -a 2 -x {1.0 2.0 61 ------- null}
+ -t 0.35 -s 0 -d 2 -p cbr -e 1000 -c 1 -i 162 -a 1 -x {0.0 2.0 100 ------- null}
+ -t 0.35 -s 0 -d 2 -p cbr -e 1000 -c 1 -i 163 -a 1 -x {0.0 2.0 101 ------- null}
d -t 0.35 -s 0 -d 2 -p cbr -e 1000 -c 1 -i 163 -a 1 -x {0.0 2.0 101 ------- null}
r -t 0.351 -s 1 -d 2 -p cbr -e 1000 -c 2 -i 60 -a 2 -x {1.0 2.0 10 ------- null}
+ -t 0.355 -s 1 -d 2 -p cbr -e 1000 -c 2 -i 164 -a 2 -x {1.0 2.0 62 ------- null}
d -t 0.355 -s 1 -d 2 -p cbr -e 1000 -c 2 -i 164 -a 2 -x {1.0 2.0 62 ------- null}
+ -t 0.355 -s 1 -d 2 -p cbr -e 500 -c 2 -i 165 -a 2 -x {1.0 2.0 63 ------- null}
d -t 0.355 -s 1 -d 2 -p cbr -e 500 -c 2 -i 165 -a 2 -x {1.0 2.0 63 ------- null}
r -t 0.355 -s 0 -d 2 -p cbr -e 1000 -c 1 -i 29 -a 1 -x {0.0 2.0 29 ------- null}
+ -t 0.355 -s 0 -d 2 -p cbr -e 1000 -c 1 -i 166 -a 1 -x {0.0 2.0 102 ------- null}
d -t 0.355 -s 0 -d 2 -p cbr -e 1000 -c 1 -i 166 -a 1 -x {0.0 2.0 102 ------- null}
+ -t 0.355 -s 0 -d 2 -p cbr -e 1000 -c 1 -i 167 -a 1 -x {0.0 2.0 103 ------- null}
d -t 0.355 -s 0 -d 2 -p cbr -e 1000 -c 1 -i 167 -a 1 -x {0.0 2.0 103 ------- null}
- -t 0.356 -s 0 -d 2 -p cbr -e 1000 -c 1 -i 32 -a 1 -x {0.0 2.0 32 ------- null}
h -t 0.356 -s 0 -d 2 -p cbr -e 1000 -c 1 -i 32 -a 1 -x {0.0 2.0 -1 ------- null}
r -t 0.359 -s 1 -d 2 -p cbr -e 500 -c 2 -i 61 -a 2 -x {1.0 2.0 11 ------- null}
- -t 0.36 -s 1 -d 2 -p cbr -e 500 -c 2 -i 65 -a 2 -x {1.0 2.0 13 ------- null}
h -t 0.36 -s 1 -d 2 -p cbr -e 500 -c 2 -i 65 -a 2 -x {1.0 2.0 -1 ------- null}
+ -t 0.36 -s 1 -d 2 -p cbr -e 1000 -c 2 -i 168 -a 2 -x {1.0 2.0 64 ------- null}
+ -t 0.36 -s 1 -d 2 -p cbr -e 500 -c 2 -i 169 -a 2 -x {1.0 2.0 65 ------- null}
d -t 0.36 -s 1 -d 2 -p cbr -e 500 -c 2 -i 169 -a 2 -x {1.0 2.0 65 ------- null}
+ -t 0.36 -s 0 -d 2 -p cbr -e 1000 -c 1 -i 170 -a 1 -x {0.0 2.0 104 ------- null}
+ -t 0.36 -s 0 -d 2 -p cbr -e 1000 -c 1 -i 171 -a 1 -x {0.0 2.0 105 ------- null}
d -t 0.36 -s 0 -d 2 -p cbr -e 1000 -c 1 -i 171 -a 1 -x {0.0 2.0 105 ------- null}
r -t 0.363 -s 0 -d 2 -p cbr -e 1000 -c 1 -i 30 -a 1 -x {0.0 2.0 30 ------- null}
- -t 0.364 -s 0 -d 2 -p cbr -e 1000 -c 1 -i 33 -a 1 -x {0.0 2.0 33 ------- null}
h -t 0.364 -s 0 -d 2 -p cbr -e 1000 -c 1 -i 33 -a 1 -x {0.0 2.0 -1 ------- null}
+ -t 0.365 -s 1 -d 2 -p cbr -e 1000 -c 2 -i 172 -a 2 -x {1.0 2.0 66 ------- null}
d -t 0.365 -s 1 -d 2 -p cbr -e 1000 -c 2 -i 172 -a 2 -x {1.0 2.0 66 ------- null}
+ -t 0.365 -s 1 -d 2 -p cbr -e 500 -c 2 -i 173 -a 2 -x {1.0 2.0 67 ------- null}
d -t 0.365 -s 1 -d 2 -p cbr -e 500 -c 2 -i 173 -a 2 -x {1.0 2.0 67 ------- null}
+ -t 0.365 -s 0 -d 2 -p cbr -e 1000 -c 1 -i 174 -a 1 -x {0.0 2.0 106 ------- null}
+ -t 0.365 -s 0 -d 2 -p cbr -e 1000 -c 1 -i 175 -a 1 -x {0.0 2.0 107 ------- null}
d -t 0.365 -s 0 -d 2 -p cbr -e 1000 -c 1 -i 175 -a 1 -x {0.0 2.0 107 ------- null}
- -t 0.368 -s 1 -d 2 -p cbr -e 1000 -c 2 -i 68 -a 2 -x {1.0 2.0 14 ------- null}
h -t 0.368 -s 1 -d 2 -p cbr -e 1000 -c 2 -i 68 -a 2 -x {1.0 2.0 -1 ------- null}
+ -t 0.37 -s 1 -d 2 -p cbr -e 1000 -c 2 -i 176 -a 2 -x {1.0 2.0 68 ------- null}
+ -t 0.37 -s 1 -d 2 -p cbr -e 500 -c 2 -i 177 -a 2 -x {1.0 2.0 69 ------- null}
d -t 0.37 -s 1 -d 2 -p cbr -e 500 -c 2 -i 177 -a 2 -x {1.0 2.0 69 ------- null}
+ -t 0.37 -s 0 -d 2 -p cbr -e 1000 -c 1 -i 178 -a 1 -x {0.0 2.0 108 ------- null}
d -t 0.37 -s 0 -d 2 -p cbr -e 1000 -c 1 -i 178 -a 1 -x {0.0 2.0 108 ------- null}
+ -t 0.37 -s 0 -d 2 -p cbr -e 1000 -c 1 -i 179 -a 1 -x {0.0 2.0 109 ------- null}
d -t 0.37 -s 0 -d 2 -p cbr -e 1000 -c 1 -i 179 -a 1 -x {0.0 2.0 109 ------- null}
r -t 0.371 -s 0 -d 2 -p cbr -e 1000 -c 1 -i 31 -a 1 -x {0.0 2.0 31 ------- null}
- -t 0.372 -s 0 -d 2 -p cbr -e 1000 -c 1 -i 34 -a 1 -x {0.0 2.0 34 ------- null}
h -t 0.372 -s 0 -d 2 -p cbr -e 1000 -c 1 -i 34 -a 1 -x {0.0 2.0 -1 ------- null}
r -t 0.375 -s 1 -d 2 -p cbr -e 1000 -c 2 -i 64 -a 2 -x {1.0 2.0 12 ------- null}
+ -t 0.375 -s 1 -d 2 -p cbr -e 1000 -c 2 -i 180 -a 2 -x {1.0 2.0 70 ------- null}
d -t 0.375 -s 1 -d 2 -p cbr -e 1000 -c 2 -i 180 -a 2 -x {1.0 2.0 70 ------- null}
+ -t 0.375 -s 1 -d 2 -p cbr -e 500 -c 2 -i 181 -a 2 -x {1.0 2.0 71 ------- null}
d -t 0.375 -s 1 -d 2 -p cbr -e 500 -c 2 -i 181 -a 2 -x {1.0 2.0 71 ------- null}
+ -t 0.375 -s 0 -d 2 -p cbr -e 1000 -c 1 -i 182 -a 1 -x {0.0 2.0 110 ------- null}
+ -t 0.375 -s 0 -d 2 -p cbr -e 1000 -c 1 -i 183 -a 1 -x {0.0 2.0 111 ------- null}
d -t 0.375 -s 0 -d 2 -p cbr -e 1000 -c 1 -i 183 -a 1 -x {0.0 2.0 111 ------- null}