+ 0.1 0 2 cbr 1000 ------- 1 0.0 2.0 0 0
- 0.1 0 2 cbr 1000 ------- 1 0.0 2.0 0 0
+ 0.1 0 2 cbr 1000 ------- 1 0.0 2.0 1 1
+ 0.105 0 2 cbr 1000 ------- 1 0.0 2.0 2 2
+ 0.105 0 2 cbr 1000 ------- 1 0.0 2.0 3 3
- 0.108 0 2 cbr 1000 ------- 1 0.0 2.0 1 1
+ 0.11 0 2 cbr 1000 ------- 1 0.0 2.0 4 4
+ 0.11 0 2 cbr 1000 ------- 1 0.0 2.0 5 5
+ 0.115 0 2 cbr 1000 ------- 1 0.0 2.0 6 6
+ 0.115 0 2 cbr 1000 ------- 1 0.0 2.0 7 7
- 0.116 0 2 cbr 1000 ------- 1 0.0 2.0 2 2
+ 0.12 0 2 cbr 1000 ------- 1 0.0 2.0 8 8
+ 0.12 0 2 cbr 1000 ------- 1 0.0 2.0 9 9
r 0.123 0 2 cbr 1000 ------- 1 0.0 2.0 0 0
- 0.124 0 2 cbr 1000 ------- 1 0.0 2.0 3 3
+ 0.125 0 2 cbr 1000 ------- 1 0.0 2.0 10 10
+ 0.125 0 2 cbr 1000 ------- 1 0.0 2.0 11 11
+ 0.13 0 2 cbr 1000 ------- 1 0.0 2.0 12 12
+ 0.13 0 2 cbr 1000 ------- 1 0.0 2.0 13 13
r 0.131 0 2 cbr 1000 ------- 1 0.0 2.0 1 1
- 0.132 0 2 cbr 1000 ------- 1 0.0 2.0 4 4
+ 0.135 0 2 cbr 1000 ------- 1 0.0 2.0 14 14
+ 0.135 0 2 cbr 1000 ------- 1 0.0 2.0 15 15
r 0.139 0 2 cbr 1000 ------- 1 0.0 2.0 2 2
- 0.14 0 2 cbr 1000 ------- 1 0.0 2.0 5 5
+ 0.14 0 2 cbr 1000 ------- 1 0.0 2.0 16 16
+ 0.14 0 2 cbr 1000 ------- 1 0.0 2.0 17 17
+ 0.145 0 2 cbr 1000 ------- 1 0.0 2.0 18 18
+ 0.145 0 2 cbr 1000 ------- 1 0.0 2.0 19 19
r 0.147 0 2 cbr 1000 ------- 1 0.0 2.0 3 3
- 0.148 0 2 cbr 1000 ------- 1 0.0 2.0 6 6
+ 0.15 0 2 cbr 1000 ------- 1 0.0 2.0 20 20
+ 0.15 0 2 cbr 1000 ------- 1 0.0 2.0 21 21
r 0.155 0 2 cbr 1000 ------- 1 0.0 2.0 4 4
+ 0.155 0 2 cbr 1000 ------- 1 0.0 2.0 22 22
+ 0.155 0 2 cbr 1000 ------- 1 0.0 2.0 23 23
- 0.156 0 2 cbr 1000 ------- 1 0.0 2.0 7 7
+ 0.16 0 2 cbr 1000 ------- 1 0.0 2.0 24 24
+ 0.16 0 2 cbr 1000 ------- 1 0.0 2.0 25 25
r 0.163 0 2 cbr 1000 ------- 1 0.0 2.0 5 5
- 0.164 0 2 cbr 1000 ------- 1 0.0 2.0 8 8
+ 0.165 0 2 cbr 1000 ------- 1 0.0 2.0 26 26
+ 0.165 0 2 cbr 1000 ------- 1 0.0 2.0 27 27
+ 0.17 0 2 cbr 1000 ------- 1 0.0 2.0 28 28
+ 0.17 0 2 cbr 1000 ------- 1 0.0 2.0 29 29
r 0.171 0 2 cbr 1000 ------- 1 0.0 2.0 6 6
- 0.172 0 2 cbr 1000 ------- 1 0.0 2.0 9 9
+ 0.175 0 2 cbr 1000 ------- 1 0.0 2.0 30 30
+ 0.175 0 2 cbr 1000 ------- 1 0.0 2.0 31 31
r 0.179 0 2 cbr 1000 ------- 1 0.0 2.0 7 7
- 0.18 0 2 cbr 1000 ------- 1 0.0 2.0 10 10
+ 0.18 0 2 cbr 1000 ------- 1 0.0 2.0 32 32
+ 0.18 0 2 cbr 1000 ------- 1 0.0 2.0 33 33
+ 0.185 0 2 cbr 1000 ------- 1 0.0 2.0 34 34
+ 0.185 0 2 cbr 1000 ------- 1 0.0 2.0 35 35
r 0.187 0 2 cbr 1000 ------- 1 0.0 2.0 8 8
- 0.188 0 2 cbr 1000 ------- 1 0.0 2.0 11 11
+ 0.19 0 2 cbr 1000 ------- 1 0.0 2.0 36 36
+ 0.19 0 2 cbr 1000 ------- 1 0.0 2.0 37 37
r 0.195 0 2 cbr 1000 ------- 1 0.0 2.0 9 9
+ 0.195 0 2 cbr 1000 ------- 1 0.0 2.0 38 38
+ 0.195 0 2 cbr 1000 ------- 1 0.0 2.0 39 39
- 0.196 0 2 cbr 1000 ------- 1 0.0 2.0 12 12
+ 0.2 1 2 cbr 1000 ------- 2 1.0 2.0 0 40
- 0.2 1 2 cbr 1000 ------- 2 1.0 2.0 0 40
+ 0.2 1 2 cbr 500 ------- 2 1.0 2.0 1 41
+ 0.2 0 2 cbr 1000 ------- 1 0.0 2.0 40 42
+ 0.2 0 2 cbr 1000 ------- 1 0.0 2.0 41 43
r 0.203 0 2 cbr 1000 ------- 1 0.0 2.0 10 10
- 0.204 0 2 cbr 1000 ------- 1 0.0 2.0 13 13
+ 0.205 1 2 cbr 1000 ------- 2 1.0 2.0 2 44
+ 0.205 1 2 cbr 500 ------- 2 1.0 2.0 3 45
+ 0.205 0 2 cbr 1000 ------- 1 0.0 2.0 42 46
+ 0.205 0 2 cbr 1000 ------- 1 0.0 2.0 43 47
+ 0.21 1 2 cbr 1000 ------- 2 1.0 2.0 4 48
+ 0.21 1 2 cbr 500 ------- 2 1.0 2.0 5 49
+ 0.21 0 2 cbr 1000 ------- 1 0.0 2.0 44 50
+ 0.21 0 2 cbr 1000 ------- 1 0.0 2.0 45 51
r 0.211 0 2 cbr 1000 ------- 1 0.0 2.0 11 11
- 0.212 0 2 cbr 1000 ------- 1 0.0 2.0 14 14
+ 0.215 1 2 cbr 1000 ------- 2 1.0 2.0 6 52
+ 0.215 1 2 cbr 500 ------- 2 1.0 2.0 7 53
+ 0.215 0 2 cbr 1000 ------- 1 0.0 2.0 46 54
+ 0.215 0 2 cbr 1000 ------- 1 0.0 2.0 47 55
- 0.216 1 2 cbr 500 ------- 2 1.0 2.0 1 41
r 0.219 0 2 cbr 1000 ------- 1 0.0 2.0 12 12
+ 0.22 1 2 cbr 1000 ------- 2 1.0 2.0 8 56
+ 0.22 1 2 cbr 500 ------- 2 1.0 2.0 9 57
- 0.22 0 2 cbr 1000 ------- 1 0.0 2.0 15 15
+ 0.22 0 2 cbr 1000 ------- 1 0.0 2.0 48 58
+ 0.22 0 2 cbr 1000 ------- 1 0.0 2.0 49 59
- 0.224 1 2 cbr 1000 ------- 2 1.0 2.0 2 44
+ 0.225 1 2 cbr 1000 ------- 2 1.0 2.0 10 60
+ 0.225 1 2 cbr 500 ------- 2 1.0 2.0 11 61
+ 0.225 0 2 cbr 1000 ------- 1 0.0 2.0 50 62
+ 0.225 0 2 cbr 1000 ------- 1 0.0 2.0 51 63
r 0.227 0 2 cbr 1000 ------- 1 0.0 2.0 13 13
- 0.228 0 2 cbr 1000 ------- 1 0.0 2.0 16 16
+ 0.23 1 2 cbr 1000 ------- 2 1.0 2.0 12 64
+ 0.23 1 2 cbr 500 ------- 2 1.0 2.0 13 65
+ 0.23 0 2 cbr 1000 ------- 1 0.0 2.0 52 66
+ 0.23 0 2 cbr 1000 ------- 1 0.0 2.0 53 67
r 0.231 1 2 cbr 1000 ------- 2 1.0 2.0 0 40
+ 0.235 1 2 cbr 1000 ------- 2 1.0 2.0 14 68
+ 0.235 1 2 cbr 500 ------- 2 1.0 2.0 15 69
r 0.235 0 2 cbr 1000 ------- 1 0.0 2.0 14 14
+ 0.235 0 2 cbr 1000 ------- 1 0.0 2.0 54 70
+ 0.235 0 2 cbr 1000 ------- 1 0.0 2.0 55 71
- 0.236 0 2 cbr 1000 ------- 1 0.0 2.0 17 17
r 0.239 1 2 cbr 500 ------- 2 1.0 2.0 1 41
- 0.24 1 2 cbr 500 ------- 2 1.0 2.0 3 45
+ 0.24 1 2 cbr 1000 ------- 2 1.0 2.0 16 72
+ 0.24 1 2 cbr 500 ------- 2 1.0 2.0 17 73
+ 0.24 0 2 cbr 1000 ------- 1 0.0 2.0 56 74
+ 0.24 0 2 cbr 1000 ------- 1 0.0 2.0 57 75
r 0.243 0 2 cbr 1000 ------- 1 0.0 2.0 15 15
- 0.244 0 2 cbr 1000 ------- 1 0.0 2.0 18 18
+ 0.245 1 2 cbr 1000 ------- 2 1.0 2.0 18 76
+ 0.245 1 2 cbr 500 ------- 2 1.0 2.0 19 77
+ 0.245 0 2 cbr 1000 ------- 1 0.0 2.0 58 78
+ 0.245 0 2 cbr 1000 ------- 1 0.0 2.0 59 79
- 0.248 1 2 cbr 1000 ------- 2 1.0 2.0 4 48
+ 0.25 1 2 cbr 1000 ------- 2 1.0 2.0 20 80
+ 0.25 1 2 cbr 500 ------- 2 1.0 2.0 21 81
+ 0.25 0 2 cbr 1000 ------- 1 0.0 2.0 60 82
+ 0.25 0 2 cbr 1000 ------- 1 0.0 2.0 61 83
r 0.251 0 2 cbr 1000 ------- 1 0.0 2.0 16 16
- 0.252 0 2 cbr 1000 ------- 1 0.0 2.0 19 19
r 0.255 1 2 cbr 1000 ------- 2 1.0 2.0 2 44
+ 0.255 1 2 cbr 1000 ------- 2 1.0 2.0 22 84
+ 0.255 1 2 cbr 500 ------- 2 1.0 2.0 23 85
+ 0.255 0 2 cbr 1000 ------- 1 0.0 2.0 62 86
+ 0.255 0 2 cbr 1000 ------- 1 0.0 2.0 63 87
r 0.259 0 2 cbr 1000 ------- 1 0.0 2.0 17 17
+ 0.26 1 2 cbr 1000 ------- 2 1.0 2.0 24 88
+ 0.26 1 2 cbr 500 ------- 2 1.0 2.0 25 89
- 0.26 0 2 cbr 1000 ------- 1 0.0 2.0 20 20
+ 0.26 0 2 cbr 1000 ------- 1 0.0 2.0 64 90
+ 0.26 0 2 cbr 1000 ------- 1 0.0 2.0 65 91
r 0.263 1 2 cbr 500 ------- 2 1.0 2.0 3 45
- 0.264 1 2 cbr 500 ------- 2 1.0 2.0 5 49
+ 0.265 1 2 cbr 1000 ------- 2 1.0 2.0 26 92
+ 0.265 1 2 cbr 500 ------- 2 1.0 2.0 27 93
+ 0.265 0 2 cbr 1000 ------- 1 0.0 2.0 66 94
+ 0.265 0 2 cbr 1000 ------- 1 0.0 2.0 67 95
r 0.267 0 2 cbr 1000 ------- 1 0.0 2.0 18 18
- 0.268 0 2 cbr 1000 ------- 1 0.0 2.0 21 21
+ 0.27 1 2 cbr 1000 ------- 2 1.0 2.0 28 96
+ 0.27 1 2 cbr 500 ------- 2 1.0 2.0 29 97
+ 0.27 0 2 cbr 1000 ------- 1 0.0 2.0 68 98
+ 0.27 0 2 cbr 1000 ------- 1 0.0 2.0 69 99
- 0.272 1 2 cbr 1000 ------- 2 1.0 2.0 6 52
+ 0.275 1 2 cbr 1000 ------- 2 1.0 2.0 30 100
+ 0.275 1 2 cbr 500 ------- 2 1.0 2.0 31 101
r 0.275 0 2 cbr 1000 ------- 1 0.0 2.0 19 19
+ 0.275 0 2 cbr 1000 ------- 1 0.0 2.0 70 102
+ 0.275 0 2 cbr 1000 ------- 1 0.0 2.0 71 103
d 0.275 0 2 cbr 1000 ------- 1 0.0 2.0 71 103
- 0.276 0 2 cbr 1000 ------- 1 0.0 2.0 22 22
r 0.279 1 2 cbr 1000 ------- 2 1.0 2.0 4 48
+ 0.28 1 2 cbr 1000 ------- 2 1.0 2.0 32 104
+ 0.28 1 2 cbr 500 ------- 2 1.0 2.0 33 105
+ 0.28 0 2 cbr 1000 ------- 1 0.0 2.0 72 106
+ 0.28 0 2 cbr 1000 ------- 1 0.0 2.0 73 107
d 0.28 0 2 cbr 1000 ------- 1 0.0 2.0 73 107
r 0.283 0 2 cbr 1000 ------- 1 0.0 2.0 20 20
- 0.284 0 2 cbr 1000 ------- 1 0.0 2.0 23 23
+ 0.285 1 2 cbr 1000 ------- 2 1.0 2.0 34 108
+ 0.285 1 2 cbr 500 ------- 2 1.0 2.0 35 109
+ 0.285 0 2 cbr 1000 ------- 1 0.0 2.0 74 110
+ 0.285 0 2 cbr 1000 ------- 1 0.0 2.0 75 111
d 0.285 0 2 cbr 1000 ------- 1 0.0 2.0 75 111
r 0.287 1 2 cbr 500 ------- 2 1.0 2.0 5 49
- 0.288 1 2 cbr 500 ------- 2 1.0 2.0 7 53
+ 0.29 1 2 cbr 1000 ------- 2 1.0 2.0 36 112
+ 0.29 1 2 cbr 500 ------- 2 1.0 2.0 37 113
+ 0.29 0 2 cbr 1000 ------- 1 0.0 2.0 76 114
d 0.29 0 2 cbr 1000 ------- 1 0.0 2.0 76 114
+ 0.29 0 2 cbr 1000 ------- 1 0.0 2.0 77 115
d 0.29 0 2 cbr 1000 ------- 1 0.0 2.0 77 115
r 0.291 0 2 cbr 1000 ------- 1 0.0 2.0 21 21
- 0.292 0 2 cbr 1000 ------- 1 0.0 2.0 24 24
+ 0.295 1 2 cbr 1000 ------- 2 1.0 2.0 38 116
+ 0.295 1 2 cbr 500 ------- 2 1.0 2.0 39 117
+ 0.295 0 2 cbr 1000 ------- 1 0.0 2.0 78 118
+ 0.295 0 2 cbr 1000 ------- 1 0.0 2.0 79 119
d 0.295 0 2 cbr 1000 ------- 1 0.0 2.0 79 119
- 0.296 1 2 cbr 1000 ------- 2 1.0 2.0 8 56
r 0.299 0 2 cbr 1000 ------- 1 0.0 2.0 22 22
+ 0.3 1 2 cbr 1000 ------- 2 1.0 2.0 40 120
+ 0.3 1 2 cbr 500 ------- 2 1.0 2.0 41 121
- 0.3 0 2 cbr 1000 ------- 1 0.0 2.0 25 25
+ 0.3 0 2 cbr 1000 ------- 1 0.0 2.0 80 122
+ 0.3 0 2 cbr 1000 ------- 1 0.0 2.0 81 123
d 0.3 0 2 cbr 1000 ------- 1 0.0 2.0 81 123
r 0.303 1 2 cbr 1000 ------- 2 1.0 2.0 6 52
+ 0.305 1 2 cbr 1000 ------- 2 1.0 2.0 42 124
+ 0.305 1 2 cbr 500 ------- 2 1.0 2.0 43 125
+ 0.305 0 2 cbr 1000 ------- 1 0.0 2.0 82 126
d 0.305 0 2 cbr 1000 ------- 1 0.0 2.0 82 126
+ 0.305 0 2 cbr 1000 ------- 1 0.0 2.0 83 127
d 0.305 0 2 cbr 1000 ------- 1 0.0 2.0 83 127
r 0.307 0 2 cbr 1000 ------- 1 0.0 2.0 23 23
- 0.308 0 2 cbr 1000 ------- 1 0.0 2.0 26 26
+ 0.31 1 2 cbr 1000 ------- 2 1.0 2.0 44 128
+ 0.31 1 2 cbr 500 ------- 2 1.0 2.0 45 129
+ 0.31 0 2 cbr 1000 ------- 1 0.0 2.0 84 130
+ 0.31 0 2 cbr 1000 ------- 1 0.0 2.0 85 131
d 0.31 0 2 cbr 1000 ------- 1 0.0 2.0 85 131
r 0.311 1 2 cbr 500 ------- 2 1.0 2.0 7 53
- 0.312 1 2 cbr 500 ------- 2 1.0 2.0 9 57
+ 0.315 1 2 cbr 1000 ------- 2 1.0 2.0 46 132
+ 0.315 1 2 cbr 500 ------- 2 1.0 2.0 47 133
r 0.315 0 2 cbr 1000 ------- 1 0.0 2.0 24 24
+ 0.315 0 2 cbr 1000 ------- 1 0.0 2.0 86 134
d 0.315 0 2 cbr 1000 ------- 1 0.0 2.0 86 134
+ 0.315 0 2 cbr 1000 ------- 1 0.0 2.0 87 135
d 0.315 0 2 cbr 1000 ------- 1 0.0 2.0 87 135
- 0.316 0 2 cbr 1000 ------- 1 0.0 2.0 27 27
- 0.32 1 2 cbr 1000 ------- 2 1.0 2.0 10 60
+ 0.32 1 2 cbr 1000 ------- 2 1.0 2.0 48 136
+ 0.32 1 2 cbr 500 ------- 2 1.0 2.0 49 137
+ 0.32 0 2 cbr 1000 ------- 1 0.0 2.0 88 138
+ 0.32 0 2 cbr 1000 ------- 1 0.0 2.0 89 139
d 0.32 0 2 cbr 1000 ------- 1 0.0 2.0 89 139
r 0.323 0 2 cbr 1000 ------- 1 0.0 2.0 25 25
- 0.324 0 2 cbr 1000 ------- 1 0.0 2.0 28 28
+ 0.325 1 2 cbr 1000 ------- 2 1.0 2.0 50 140
+ 0.325 1 2 cbr 500 ------- 2 1.0 2.0 51 141
+ 0.325 0 2 cbr 1000 ------- 1 0.0 2.0 90 142
+ 0.325 0 2 cbr 1000 ------- 1 0.0 2.0 91 143
d 0.325 0 2 cbr 1000 ------- 1 0.0 2.0 91 143
r 0.327 1 2 cbr 1000 ------- 2 1.0 2.0 8 56
+ 0.33 1 2 cbr 1000 ------- 2 1.0 2.0 52 144
+ 0.33 1 2 cbr 500 ------- 2 1.0 2.0 53 145
+ 0.33 0 2 cbr 1000 ------- 1 0.0 2.0 92 146
d 0.33 0 2 cbr 1000 ------- 1 0.0 2.0 92 146
+ 0.33 0 2 cbr 1000 ------- 1 0.0 2.0 93 147
d 0.33 0 2 cbr 1000 ------- 1 0.0 2.0 93 147
r 0.331 0 2 cbr 1000 ------- 1 0.0 2.0 26 26
- 0.332 0 2 cbr 1000 ------- 1 0.0 2.0 29 29
r 0.335 1 2 cbr 500 ------- 2 1.0 2.0 9 57
+ 0.335 1 2 cbr 1000 ------- 2 1.0 2.0 54 148
+ 0.335 1 2 cbr 500 ------- 2 1.0 2.0 55 149
+ 0.335 0 2 cbr 1000 ------- 1 0.0 2.0 94 150
+ 0.335 0 2 cbr 1000 ------- 1 0.0 2.0 95 151
d 0.335 0 2 cbr 1000 ------- 1 0.0 2.0 95 151
- 0.336 1 2 cbr 500 ------- 2 1.0 2.0 11 61
r 0.339 0 2 cbr 1000 ------- 1 0.0 2.0 27 27
+ 0.34 1 2 cbr 1000 ------- 2 1.0 2.0 56 152
+ 0.34 1 2 cbr 500 ------- 2 1.0 2.0 57 153
- 0.34 0 2 cbr 1000 ------- 1 0.0 2.0 30 30
+ 0.34 0 2 cbr 1000 ------- 1 0.0 2.0 96 154
+ 0.34 0 2 cbr 1000 ------- 1 0.0 2.0 97 155
d 0.34 0 2 cbr 1000 ------- 1 0.0 2.0 97 155
- 0.344 1 2 cbr 1000 ------- 2 1.0 2.0 12 64
+ 0.345 1 2 cbr 1000 ------- 2 1.0 2.0 58 156
+ 0.345 1 2 cbr 500 ------- 2 1.0 2.0 59 157
+ 0.345 0 2 cbr 1000 ------- 1 0.0 2.0 98 158
d 0.345 0 2 cbr 1000 ------- 1 0.0 2.0 98 158
+ 0.345 0 2 cbr 1000 ------- 1 0.0 2.0 99 159
d 0.345 0 2 cbr 1000 ------- 1 0.0 2.0 99 159
r 0.347 0 2 cbr 1000 ------- 1 0.0 2.0 28 28
- 0.348 0 2 cbr 1000 ------- 1 0.0 2.0 31 31
+ 0.35 1 2 cbr 1000 ------- 2 1.0 2.0 60 160
+ 0.35 1 2 cbr 500 ------- 2 1.0 2.0 61 161
+ 0.35 0 2 cbr 1000 ------- 1 0.0 2.0 100 162
+ 0.35 0 2 cbr 1000 ------- 1 0.0 2.0 101 163
d 0.35 0 2 cbr 1000 ------- 1 0.0 2.0 101 163
r 0.351 1 2 cbr 1000 ------- 2 1.0 2.0 10 60
+ 0.355 1 2 cbr 1000 ------- 2 1.0 2.0 62 164
d 0.355 1 2 cbr 1000 ------- 2 1.0 2.0 62 164
+ 0.355 1 2 cbr 500 ------- 2 1.0 2.0 63 165
d 0.355 1 2 cbr 500 ------- 2 1.0 2.0 63 165
r 0.355 0 2 cbr 1000 ------- 1 0.0 2.0 29 29
+ 0.355 0 2 cbr 1000 ------- 1 0.0 2.0 102 166
d 0.355 0 2 cbr 1000 ------- 1 0.0 2.0 102 166
+ 0.355 0 2 cbr 1000 ------- 1 0.0 2.0 103 167
d 0.355 0 2 cbr 1000 ------- 1 0.0 2.0 103 167
- 0.356 0 2 cbr 1000 ------- 1 0.0 2.0 32 32
r 0.359 1 2 cbr 500 ------- 2 1.0 2.0 11 61
- 0.36 1 2 cbr 500 ------- 2 1.0 2.0 13 65
+ 0.36 1 2 cbr 1000 ------- 2 1.0 2.0 64 168
+ 0.36 1 2 cbr 500 ------- 2 1.0 2.0 65 169
d 0.36 1 2 cbr 500 ------- 2 1.0 2.0 65 169
+ 0.36 0 2 cbr 1000 ------- 1 0.0 2.0 104 170
+ 0.36 0 2 cbr 1000 ------- 1 0.0 2.0 105 171
d 0.36 0 2 cbr 1000 ------- 1 0.0 2.0 105 171
r 0.363 0 2 cbr 1000 ------- 1 0.0 2.0 30 30
- 0.364 0 2 cbr 1000 ------- 1 0.0 2.0 33 33
+ 0.365 1 2 cbr 1000 ------- 2 1.0 2.0 66 172
d 0.365 1 2 cbr 1000 ------- 2 1.0 2.0 66 172
+ 0.365 1 2 cbr 500 ------- 2 1.0 2.0 67 173
d 0.365 1 2 cbr 500 ------- 2 1.0 2.0 67 173
+ 0.365 0 2 cbr 1000 ------- 1 0.0 2.0 106 174
+ 0.365 0 2 cbr 1000 ------- 1 0.0 2.0 107 175
d 0.365 0 2 cbr 1000 ------- 1 0.0 2.0 107 175
- 0.368 1 2 cbr 1000 ------- 2 1.0 2.0 14 68
+ 0.37 1 2 cbr 1000 ------- 2 1.0 2.0 68 176
+ 0.37 1 2 cbr 500 ------- 2 1.0 2.0 69 177
d 0.37 1 2 cbr 500 ------- 2 1.0 2.0 69 177
+ 0.37 0 2 cbr 1000 ------- 1 0.0 2.0 108 178
d 0.37 0 2 cbr 1000 ------- 1 0.0 2.0 108 178
+ 0.37 0 2 cbr 1000 ------- 1 0.0 2.0 109 179
d 0.37 0 2 cbr 1000 ------- 1 0.0 2.0 109 179
r 0.371 0 2 cbr 1000 ------- 1 0.0 2.0 31 31
- 0.372 0 2 cbr 1000 ------- 1 0.0 2.0 34 34
r 0.375 1 2 cbr 1000 ------- 2 1.0 2.0 12 64
+ 0.375 1 2 cbr 1000 ------- 2 1.0 2.0 70 180
d 0.375 1 2 cbr 1000 ------- 2 1.0 2.0 70 180
+ 0.375 1 2 cbr 500 ------- 2 1.0 2.0 71 181
d 0.375 1 2 cbr 500 ------- 2 1.0 2.0 71 181
+ 0.375 0 2 cbr 1000 ------- 1 0.0 2.0 110 182
+ 0.375 0 2 cbr 1000 ------- 1 0.0 2.0 111 183
d 0.375 0 2 cbr 1000 ------- 1 0.0 2.0 111 183
r 0.379 0 2 cbr 1000 ------- 1 0.0 2.0 32 32
+ 0.38 1 2 cbr 1000 ------- 2 1.0 2.0 72 184
d 0.38 1 2 cbr 1000 ------- 2 1.0 2.0 72 184
+ 0.38 1 2 cbr 500 ------- 2 1.0 2.0 73 185
d 0.38 1 2 cbr 500 ------- 2 1.0 2.0 73 185
- 0.38 0 2 cbr 1000 ------- 1 0.0 2.0 35 35
+ 0.38 0 2 cbr 1000 ------- 1 0.0 2.0 112 186
+ 0.38 0 2 cbr 1000 ------- 1 0.0 2.0 113 187
d 0.38 0 2 cbr 1000 ------- 1 0.0 2.0 113 187
r 0.383 1 2 cbr 500 ------- 2 1.0 2.0 13 65
- 0.384 1 2 cbr 500 ------- 2 1.0 2.0 15 69
+ 0.385 1 2 cbr 1000 ------- 2 1.0 2.0 74 188
+ 0.385 1 2 cbr 500 ------- 2 1.0 2.0 75 189
d 0.385 1 2 cbr 500 ------- 2 1.0 2.0 75 189
+ 0.385 0 2 cbr 1000 ------- 1 0.0 2.0 114 190
d 0.385 0 2 cbr 1000 ------- 1 0.0 2.0 114 190
+ 0.385 0 2 cbr 1000 ------- 1 0.0 2.0 115 191
d 0.385 0 2 cbr 1000 ------- 1 0.0 2.0 115 191
r 0.387 0 2 cbr 1000 ------- 1 0.0 2.0 33 33
- 0.388 0 2 cbr 1000 ------- 1 0.0 2.0 36 36
+ 0.39 1 2 cbr 1000 ------- 2 1.0 2.0 76 192
d 0.39 1 2 cbr 1000 ------- 2 1.0 2.0 76 192
+ 0.39 1 2 cbr 500 ------- 2 1.0 2.0 77 193
d 0.39 1 2 cbr 500 ------- 2 1.0 2.0 77 193
+ 0.39 0 2 cbr 1000 ------- 1 0.0 2.0 116 194
+ 0.39 0 2 cbr 1000 ------- 1 0.0 2.0 117 195
d 0.39 0 2 cbr 1000 ------- 1 0.0 2.0 117 195
- 0.392 1 2 cbr 1000 ------- 2 1.0 2.0 16 72
+ 0.395 1 2 cbr 1000 ------- 2 1.0 2.0 78 196
+ 0.395 1 2 cbr 500 ------- 2 1.0 2.0 79 197
d 0.395 1 2 cbr 500 ------- 2 1.0 2.0 79 197
r 0.395 0 2 cbr 1000 ------- 1 0.0 2.0 34 34
+ 0.395 0 2 cbr 1000 ------- 1 0.0 2.0 118 198
d 0.395 0 2 cbr 1000 ------- 1 0.0 2.0 118 198
+ 0.395 0 2 cbr 1000 ------- 1 0.0 2.0 119 199
d 0.395 0 2 cbr 1000 ------- 1 0.0 2.0 119 199
- 0.396 0 2 cbr 1000 ------- 1 0.0 2.0 37 37
r 0.399 1 2 cbr 1000 ------- 2 1.0 2.0 14 68
+ 0.4 1 2 cbr 1000 ------- 2 1.0 2.0 80 200
d 0.4 1 2 cbr 1000 ------- 2 1.0 2.0 80 200
+ 0.4 1 2 cbr 500 ------- 2 1.0 2.0 81 201
d 0.4 1 2 cbr 500 ------- 2 1.0 2.0 81 201
+ 0.4 0 2 cbr 1000 ------- 1 0.0 2.0 120 202
+ 0.4 0 2 cbr 1000 ------- 1 0.0 2.0 121 203
d 0.4 0 2 cbr 1000 ------- 1 0.0 2.0 121 203
r 0.403 0 2 cbr 1000 ------- 1 0.0 2.0 35 35
- 0.404 0 2 cbr 1000 ------- 1 0.0 2.0 38 38
+ 0.405 1 2 cbr 1000 ------- 2 1.0 2.0 82 204
d 0.405 1 2 cbr 1000 ------- 2 1.0 2.0 82 204
+ 0.405 1 2 cbr 500 ------- 2 1.0 2.0 83 205
d 0.405 1 2 cbr 500 ------- 2 1.0 2.0 83 205
+ 0.405 0 2 cbr 1000 ------- 1 0.0 2.0 122 206
+ 0.405 0 2 cbr 1000 ------- 1 0.0 2.0 123 207
d 0.405 0 2 cbr 1000 ------- 1 0.0 2.0 123 207
r 0.407 1 2 cbr 500 ------- 2 1.0 2.0 15 69
- 0.408 1 2 cbr 500 ------- 2 1.0 2.0 17 73
+ 0.41 1 2 cbr 1000 ------- 2 1.0 2.0 84 208
+ 0.41 1 2 cbr 500 ------- 2 1.0 2.0 85 209
d 0.41 1 2 cbr 500 ------- 2 1.0 2.0 85 209
+ 0.41 0 2 cbr 1000 ------- 1 0.0 2.0 124 210
d 0.41 0 2 cbr 1000 ------- 1 0.0 2.0 124 210
+ 0.41 0 2 cbr 1000 ------- 1 0.0 2.0 125 211
d 0.41 0 2 cbr 1000 ------- 1 0.0 2.0 125 211
r 0.411 0 2 cbr 1000 ------- 1 0.0 2.0 36 36
- 0.412 0 2 cbr 1000 ------- 1 0.0 2.0 39 39
+ 0.415 1 2 cbr 1000 ------- 2 1.0 2.0 86 212
d 0.415 1 2 cbr 1000 ------- 2 1.0 2.0 86 212
+ 0.415 1 2 cbr 500 ------- 2 1.0 2.0 87 213
d 0.415 1 2 cbr 500 ------- 2 1.0 2.0 87 213
+ 0.415 0 2 cbr 1000 ------- 1 0.0 2.0 126 214
+ 0.415 0 2 cbr 1000 ------- 1 0.0 2.0 127 215
d 0.415 0 2 cbr 1000 ------- 1 0.0 2.0 127 215
- 0.416 1 2 cbr 1000 ------- 2 1.0 2.0 18 76
r 0.419 0 2 cbr 1000 ------- 1 0.0 2.0 37 37
+ 0.42 1 2 cbr 1000 ------- 2 1.0 2.0 88 216
+ 0.42 1 2 cbr 500 ------- 2 1.0 2.0 89 217
d 0.42 1 2 cbr 500 ------- 2 1.0 2.0 89 217
- 0.42 0 2 cbr 1000 ------- 1 0.0 2.0 40 42
+ 0.42 0 2 cbr 1000 ------- 1 0.0 2.0 128 218
+ 0.42 0 2 cbr 1000 ------- 1 0.0 2.0 129 219
d 0.42 0 2 cbr 1000 ------- 1 0.0 2.0 129 219
r 0.423 1 2 cbr 1000 ------- 2 1.0 2.0 16 72
+ 0.425 1 2 cbr 1000 ------- 2 1.0 2.0 90 220
d 0.425 1 2 cbr 1000 ------- 2 1.0 2.0 90 220
+ 0.425 1 2 cbr 500 ------- 2 1.0 2.0 91 221
d 0.425 1 2 cbr 500 ------- 2 1.0 2.0 91 221
+ 0.425 0 2 cbr 1000 ------- 1 0.0 2.0 130 222
d 0.425 0 2 cbr 1000 ------- 1 0.0 2.0 130 222
+ 0.425 0 2 cbr 1000 ------- 1 0.0 2.0 131 223
d 0.425 0 2 cbr 1000 ------- 1 0.0 2.0 131 223
r 0.427 0 2 cbr 1000 ------- 1 0.0 2.0 38 38
- 0.428 0 2 cbr 1000 ------- 1 0.0 2.0 41 43
+ 0.43 1 2 cbr 1000 ------- 2 1.0 2.0 92 224
d 0.43 1 2 cbr 1000 ------- 2 1.0 2.0 92 224
+ 0.43 1 2 cbr 500 ------- 2 1.0 2.0 93 225
d 0.43 1 2 cbr 500 ------- 2 1.0 2.0 93 225
+ 0.43 0 2 cbr 1000 ------- 1 0.0 2.0 132 226
+ 0.43 0 2 cbr 1000 ------- 1 0.0 2.0 133 227
d 0.43 0 2 cbr 1000 ------- 1 0.0 2.0 133 227
r 0.431 1 2 cbr 500 ------- 2 1.0 2.0 17 73
- 0.432 1 2 cbr 500 ------- 2 1.0 2.0 19 77
+ 0.435 1 2 cbr 1000 ------- 2 1.0 2.0 94 228
+ 0.435 1 2 cbr 500 ------- 2 1.0 2.0 95 229
d 0.435 1 2 cbr 500 ------- 2 1.0 2.0 95 229
r 0.435 0 2 cbr 1000 ------- 1 0.0 2.0 39 39
+ 0.435 0 2 cbr 1000 ------- 1 0.0 2.0 134 230
d 0.435 0 2 cbr 1000 ------- 1 0.0 2.0 134 230
+ 0.435 0 2 cbr 1000 ------- 1 0.0 2.0 135 231
d 0.435 0 2 cbr 1000 ------- 1 0.0 2.0 135 231
- 0.436 0 2 cbr 1000 ------- 1 0.0 2.0 42 46
- 0.44 1 2 cbr 1000 ------- 2 1.0 2.0 20 80
+ 0.44 1 2 cbr 1000 ------- 2 1.0 2.0 96 232
+ 0.44 1 2 cbr 500 ------- 2 1.0 2.0 97 233
d 0.44 1 2 cbr 500 ------- 2 1.0 2.0 97 233
+ 0.44 0 2 cbr 1000 ------- 1 0.0 2.0 136 234
+ 0.44 0 2 cbr 1000 ------- 1 0.0 2.0 137 235
d 0.44 0 2 cbr 1000 ------- 1 0.0 2.0 137 235
r 0.443 0 2 cbr 1000 ------- 1 0.0 2.0 40 42
- 0.444 0 2 cbr 1000 ------- 1 0.0 2.0 43 47
+ 0.445 1 2 cbr 1000 ------- 2 1.0 2.0 98 236
d 0.445 1 2 cbr 1000 ------- 2 1.0 2.0 98 236
+ 0.445 1 2 cbr 500 ------- 2 1.0 2.0 99 237
d 0.445 1 2 cbr 500 ------- 2 1.0 2.0 99 237
+ 0.445 0 2 cbr 1000 ------- 1 0.0 2.0 138 238
+ 0.445 0 2 cbr 1000 ------- 1 0.0 2.0 139 239
d 0.445 0 2 cbr 1000 ------- 1 0.0 2.0 139 239
r 0.447 1 2 cbr 1000 ------- 2 1.0 2.0 18 76
+ 0.45 1 2 cbr 1000 ------- 2 1.0 2.0 100 240
d 0.45 1 2 cbr 1000 ------- 2 1.0 2.0 100 240
+ 0.45 1 2 cbr 500 ------- 2 1.0 2.0 101 241
d 0.45 1 2 cbr 500 ------- 2 1.0 2.0 101 241
+ 0.45 0 2 cbr 1000 ------- 1 0.0 2.0 140 242
d 0.45 0 2 cbr 1000 ------- 1 0.0 2.0 140 242
+ 0.45 0 2 cbr 1000 ------- 1 0.0 2.0 141 243
d 0.45 0 2 cbr 1000 ------- 1 0.0 2.0 141 243
r 0.451 0 2 cbr 1000 ------- 1 0.0 2.0 41 43
- 0.452 0 2 cbr 1000 ------- 1 0.0 2.0 44 50
r 0.455 1 2 cbr 500 ------- 2 1.0 2.0 19 77
+ 0.455 1 2 cbr 1000 ------- 2 1.0 2.0 102 244
d 0.455 1 2 cbr 1000 ------- 2 1.0 2.0 102 244
+ 0.455 1 2 cbr 500 ------- 2 1.0 2.0 103 245
d 0.455 1 2 cbr 500 ------- 2 1.0 2.0 103 245
+ 0.455 0 2 cbr 1000 ------- 1 0.0 2.0 142 246
+ 0.455 0 2 cbr 1000 ------- 1 0.0 2.0 143 247
d 0.455 0 2 cbr 1000 ------- 1 0.0 2.0 143 247
- 0.456 1 2 cbr 500 ------- 2 1.0 2.0 21 81
r 0.459 0 2 cbr 1000 ------- 1 0.0 2.0 42 46
+ 0.46 1 2 cbr 1000 ------- 2 1.0 2.0 104 248
+ 0.46 1 2 cbr 500 ------- 2 1.0 2.0 105 249
d 0.46 1 2 cbr 500 ------- 2 1.0 2.0 105 249
- 0.46 0 2 cbr 1000 ------- 1 0.0 2.0 45 51
+ 0.46 0 2 cbr 1000 ------- 1 0.0 2.0 144 250
+ 0.46 0 2 cbr 1000 ------- 1 0.0 2.0 145 251
d 0.46 0 2 cbr 1000 ------- 1 0.0 2.0 145 251
- 0.464 1 2 cbr 1000 ------- 2 1.0 2.0 22 84
+ 0.465 1 2 cbr 1000 ------- 2 1.0 2.0 106 252
+ 0.465 1 2 cbr 500 ------- 2 1.0 2.0 107 253
d 0.465 1 2 cbr 500 ------- 2 1.0 2.0 107 253
+ 0.465 0 2 cbr 1000 ------- 1 0.0 2.0 146 254
d 0.465 0 2 cbr 1000 ------- 1 0.0 2.0 146 254
+ 0.465 0 2 cbr 1000 ------- 1 0.0 2.0 147 255
d 0.465 0 2 cbr 1000 ------- 1 0.0 2.0 147 255
r 0.467 0 2 cbr 1000 ------- 1 0.0 2.0 43 47
- 0.468 0 2 cbr 1000 ------- 1 0.0 2.0 46 54
+ 0.47 1 2 cbr 1000 ------- 2 1.0 2.0 108 256
d 0.47 1 2 cbr 1000 ------- 2 1.0 2.0 108 256
+ 0.47 1 2 cbr 500 ------- 2 1.0 2.0 109 257
d 0.47 1 2 cbr 500 ------- 2 1.0 2.0 109 257
+ 0.47 0 2 cbr 1000 ------- 1 0.0 2.0 148 258
+ 0.47 0 2 cbr 1000 ------- 1 0.0 2.0 149 259
d 0.47 0 2 cbr 1000 ------- 1 0.0 2.0 149 259
r 0.471 1 2 cbr 1000 ------- 2 1.0 2.0 20 80
+ 0.475 1 2 cbr 1000 ------- 2 1.0 2.0 110 260
d 0.475 1 2 cbr 1000 ------- 2 1.0 2.0 110 260
+ 0.475 1 2 cbr 500 ------- 2 1.0 2.0 111 261
d 0.475 1 2 cbr 500 ------- 2 1.0 2.0 111 261
r 0.475 0 2 cbr 1000 ------- 1 0.0 2.0 44 50
+ 0.475 0 2 cbr 1000 ------- 1 0.0 2.0 150 262
d 0.475 0 2 cbr 1000 ------- 1 0.0 2.0 150 262
+ 0.475 0 2 cbr 1000 ------- 1 0.0 2.0 151 263
d 0.475 0 2 cbr 1000 ------- 1 0.0 2.0 151 263
- 0.476 0 2 cbr 1000 ------- 1 0.0 2.0 47 55
r 0.479 1 2 cbr 500 ------- 2 1.0 2.0 21 81
- 0.48 1 2 cbr 500 ------- 2 1.0 2.0 23 85
+ 0.48 1 2 cbr 1000 ------- 2 1.0 2.0 112 264
+ 0.48 1 2 cbr 500 ------- 2 1.0 2.0 113 265
d 0.48 1 2 cbr 500 ------- 2 1.0 2.0 113 265
+ 0.48 0 2 cbr 1000 ------- 1 0.0 2.0 152 266
+ 0.48 0 2 cbr 1000 ------- 1 0.0 2.0 153 267
d 0.48 0 2 cbr 1000 ------- 1 0.0 2.0 153 267
r 0.483 0 2 cbr 1000 ------- 1 0.0 2.0 45 51
- 0.484 0 2 cbr 1000 ------- 1 0.0 2.0 48 58
+ 0.485 1 2 cbr 1000 ------- 2 1.0 2.0 114 268
d 0.485 1 2 cbr 1000 ------- 2 1.0 2.0 114 268
+ 0.485 1 2 cbr 500 ------- 2 1.0 2.0 115 269
d 0.485 1 2 cbr 500 ------- 2 1.0 2.0 115 269
+ 0.485 0 2 cbr 1000 ------- 1 0.0 2.0 154 270
+ 0.485 0 2 cbr 1000 ------- 1 0.0 2.0 155 271
d 0.485 0 2 cbr 1000 ------- 1 0.0 2.0 155 271
- 0.488 1 2 cbr 1000 ------- 2 1.0 2.0 24 88
+ 0.49 1 2 cbr 1000 ------- 2 1.0 2.0 116 272
+ 0.49 1 2 cbr 500 ------- 2 1.0 2.0 117 273
d 0.49 1 2 cbr 500 ------- 2 1.0 2.0 117 273
+ 0.49 0 2 cbr 1000 ------- 1 0.0 2.0 156 274
d 0.49 0 2 cbr 1000 ------- 1 0.0 2.0 156 274
+ 0.49 0 2 cbr 1000 ------- 1 0.0 2.0 157 275
d 0.49 0 2 cbr 1000 ------- 1 0.0 2.0 157 275
r 0.491 0 2 cbr 1000 ------- 1 0.0 2.0 46 54
- 0.492 0 2 cbr 1000 ------- 1 0.0 2.0 49 59
r 0.495 1 2 cbr 1000 ------- 2 1.0 2.0 22 84
+ 0.495 1 2 cbr 1000 ------- 2 1.0 2.0 118 276
d 0.495 1 2 cbr 1000 ------- 2 1.0 2.0 118 276
+ 0.495 1 2 cbr 500 ------- 2 1.0 2.0 119 277
d 0.495 1 2 cbr 500 ------- 2 1.0 2.0 119 277
+ 0.495 0 2 cbr 1000 ------- 1 0.0 2.0 158 278
+ 0.495 0 2 cbr 1000 ------- 1 0.0 2.0 159 279
d 0.495 0 2 cbr 1000 ------- 1 0.0 2.0 159 279
r 0.499 0 2 cbr 1000 ------- 1 0.0 2.0 47 55
+ 0.5 1 2 cbr 1000 ------- 2 1.0 2.0 120 280
d 0.5 1 2 cbr 1000 ------- 2 1.0 2.0 120 280
+ 0.5 1 2 cbr 500 ------- 2 1.0 2.0 121 281
d 0.5 1 2 cbr 500 ------- 2 1.0 2.0 121 281
- 0.5 0 2 cbr 1000 ------- 1 0.0 2.0 50 62
+ 0.5 0 2 cbr 1000 ------- 1 0.0 2.0 160 282
+ 0.5 0 2 cbr 1000 ------- 1 0.0 2.0 161 283
d 0.5 0 2 cbr 1000 ------- 1 0.0 2.0 161 283
r 0.503 1 2 cbr 500 ------- 2 1.0 2.0 23 85
- 0.504 1 2 cbr 500 ------- 2 1.0 2.0 25 89
+ 0.505 1 2 cbr 1000 ------- 2 1.0 2.0 122 284
+ 0.505 1 2 cbr 500 ------- 2 1.0 2.0 123 285
d 0.505 1 2 cbr 500 ------- 2 1.0 2.0 123 285
+ 0.505 0 2 cbr 1000 ------- 1 0.0 2.0 162 286
d 0.505 0 2 cbr 1000 ------- 1 0.0 2.0 162 286
+ 0.505 0 2 cbr 1000 ------- 1 0.0 2.0 163 287
d 0.505 0 2 cbr 1000 ------- 1 0.0 2.0 163 287
r 0.507 0 2 cbr 1000 ------- 1 0.0 2.0 48 58
- 0.508 0 2 cbr 1000 ------- 1 0.0 2.0 51 63
+ 0.51 1 2 cbr 1000 ------- 2 1.0 2.0 124 288
d 0.51 1 2 cbr 1000 ------- 2 1.0 2.0 124 288
+ 0.51 1 2 cbr 500 ------- 2 1.0 2.0 125 289
d 0.51 1 2 cbr 500 ------- 2 1.0 2.0 125 289
+ 0.51 0 2 cbr 1000 ------- 1 0.0 2.0 164 290
+ 0.51 0 2 cbr 1000 ------- 1 0.0 2.0 165 291
d 0.51 0 2 cbr 1000 ------- 1 0.0 2.0 165 291
- 0.512 1 2 cbr 1000 ------- 2 1.0 2.0 26 92
+ 0.515 1 2 cbr 1000 ------- 2 1.0 2.0 126 292
+ 0.515 1 2 cbr 500 ------- 2 1.0 2.0 127 293
d 0.515 1 2 cbr 500 ------- 2 1.0 2.0 127 293
r 0.515 0 2 cbr 1000 ------- 1 0.0 2.0 49 59
+ 0.515 0 2 cbr 1000 ------- 1 0.0 2.0 166 294
d 0.515 0 2 cbr 1000 ------- 1 0.0 2.0 166 294
+ 0.515 0 2 cbr 1000 ------- 1 0.0 2.0 167 295
d 0.515 0 2 cbr 1000 ------- 1 0.0 2.0 167 295
- 0.516 0 2 cbr 1000 ------- 1 0.0 2.0 52 66
r 0.519 1 2 cbr 1000 ------- 2 1.0 2.0 24 88
+ 0.52 1 2 cbr 1000 ------- 2 1.0 2.0 128 296
d 0.52 1 2 cbr 1000 ------- 2 1.0 2.0 128 296
+ 0.52 1 2 cbr 500 ------- 2 1.0 2.0 129 297
d 0.52 1 2 cbr 500 ------- 2 1.0 2.0 129 297
+ 0.52 0 2 cbr 1000 ------- 1 0.0 2.0 168 298
+ 0.52 0 2 cbr 1000 ------- 1 0.0 2.0 169 299
d 0.52 0 2 cbr 1000 ------- 1 0.0 2.0 169 299
r 0.523 0 2 cbr 1000 ------- 1 0.0 2.0 50 62
- 0.524 0 2 cbr 1000 ------- 1 0.0 2.0 53 67
+ 0.525 1 2 cbr 1000 ------- 2 1.0 2.0 130 300
d 0.525 1 2 cbr 1000 ------- 2 1.0 2.0 130 300
+ 0.525 1 2 cbr 500 ------- 2 1.0 2.0 131 301
d 0.525 1 2 cbr 500 ------- 2 1.0 2.0 131 301
+ 0.525 0 2 cbr 1000 ------- 1 0.0 2.0 170 302
+ 0.525 0 2 cbr 1000 ------- 1 0.0 2.0 171 303
d 0.525 0 2 cbr 1000 ------- 1 0.0 2.0 171 303
r 0.527 1 2 cbr 500 ------- 2 1.0 2.0 25 89
- 0.528 1 2 cbr 500 ------- 2 1.0 2.0 27 93
+ 0.53 1 2 cbr 1000 ------- 2 1.0 2.0 132 304
+ 0.53 1 2 cbr 500 ------- 2 1.0 2.0 133 305
d 0.53 1 2 cbr 500 ------- 2 1.0 2.0 133 305
+ 0.53 0 2 cbr 1000 ------- 1 0.0 2.0 172 306
d 0.53 0 2 cbr 1000 ------- 1 0.0 2.0 172 306
+ 0.53 0 2 cbr 1000 ------- 1 0.0 2.0 173 307
d 0.53 0 2 cbr 1000 ------- 1 0.0 2.0 173 307
r 0.531 0 2 cbr 1000 ------- 1 0.0 2.0 51 63
- 0.532 0 2 cbr 1000 ------- 1 0.0 2.0 54 70
+ 0.535 1 2 cbr 1000 ------- 2 1.0 2.0 134 308
d 0.535 1 2 cbr 1000 ------- 2 1.0 2.0 134 308
+ 0.535 1 2 cbr 500 ------- 2 1.0 2.0 135 309
d 0.535 1 2 cbr 500 ------- 2 1.0 2.0 135 309
+ 0.535 0 2 cbr 1000 ------- 1 0.0 2.0 174 310
+ 0.535 0 2 cbr 1000 ------- 1 0.0 2.0 175 311
d 0.535 0 2 cbr 1000 ------- 1 0.0 2.0 175 311
- 0.536 1 2 cbr 1000 ------- 2 1.0 2.0 28 96
r 0.539 0 2 cbr 1000 ------- 1 0.0 2.0 52 66
+ 0.54 1 2 cbr 1000 ------- 2 1.0 2.0 136 312
+ 0.54 1 2 cbr 500 ------- 2 1.0 2.0 137 313
d 0.54 1 2 cbr 500 ------- 2 1.0 2.0 137 313
- 0.54 0 2 cbr 1000 ------- 1 0.0 2.0 55 71
+ 0.54 0 2 cbr 1000 ------- 1 0.0 2.0 176 314
+ 0.54 0 2 cbr 1000 ------- 1 0.0 2.0 177 315
d 0.54 0 2 cbr 1000 ------- 1 0.0 2.0 177 315
r 0.543 1 2 cbr 1000 ------- 2 1.0 2.0 26 92
+ 0.545 1 2 cbr 1000 ------- 2 1.0 2.0 138 316
d 0.545 1 2 cbr 1000 ------- 2 1.0 2.0 138 316
+ 0.545 1 2 cbr 500 ------- 2 1.0 2.0 139 317
d 0.545 1 2 cbr 500 ------- 2 1.0 2.0 139 317
+ 0.545 0 2 cbr 1000 ------- 1 0.0 2.0 178 318
d 0.545 0 2 cbr 1000 ------- 1 0.0 2.0 178 318
+ 0.545 0 2 cbr 1000 ------- 1 0.0 2.0 179 319
d 0.545 0 2 cbr 1000 ------- 1 0.0 2.0 179 319
r 0.547 0 2 cbr 1000 ------- 1 0.0 2.0 53 67
- 0.548 0 2 cbr 1000 ------- 1 0.0 2.0 56 74
+ 0.55 1 2 cbr 1000 ------- 2 1.0 2.0 140 320
d 0.55 1 2 cbr 1000 ------- 2 1.0 2.0 140 320
+ 0.55 1 2 cbr 500 ------- 2 1.0 2.0 141 321
d 0.55 1 2 cbr 500 ------- 2 1.0 2.0 141 321
+ 0.55 0 2 cbr 1000 ------- 1 0.0 2.0 180 322
+ 0.55 0 2 cbr 1000 ------- 1 0.0 2.0 181 323
d 0.55 0 2 cbr 1000 ------- 1 0.0 2.0 181 323
r 0.551 1 2 cbr 500 ------- 2 1.0 2.0 27 93
- 0.552 1 2 cbr 500 ------- 2 1.0 2.0 29 97
+ 0.555 1 2 cbr 1000 ------- 2 1.0 2.0 142 324
+ 0.555 1 2 cbr 500 ------- 2 1.0 2.0 143 325
d 0.555 1 2 cbr 500 ------- 2 1.0 2.0 143 325
r 0.555 0 2 cbr 1000 ------- 1 0.0 2.0 54 70
+ 0.555 0 2 cbr 1000 ------- 1 0.0 2.0 182 326
d 0.555 0 2 cbr 1000 ------- 1 0.0 2.0 182 326
+ 0.555 0 2 cbr 1000 ------- 1 0.0 2.0 183 327
d 0.555 0 2 cbr 1000 ------- 1 0.0 2.0 183 327
- 0.556 0 2 cbr 1000 ------- 1 0.0 2.0 57 75
- 0.56 1 2 cbr 1000 ------- 2 1.0 2.0 30 100
+ 0.56 1 2 cbr 1000 ------- 2 1.0 2.0 144 328
+ 0.56 1 2 cbr 500 ------- 2 1.0 2.0 145 329
d 0.56 1 2 cbr 500 ------- 2 1.0 2.0 145 329
+ 0.56 0 2 cbr 1000 ------- 1 0.0 2.0 184 330
+ 0.56 0 2 cbr 1000 ------- 1 0.0 2.0 185 331
d 0.56 0 2 cbr 1000 ------- 1 0.0 2.0 185 331
r 0.563 0 2 cbr 1000 ------- 1 0.0 2.0 55 71
- 0.564 0 2 cbr 1000 ------- 1 0.0 2.0 58 78
+ 0.565 1 2 cbr 1000 ------- 2 1.0 2.0 146 332
d 0.565 1 2 cbr 1000 ------- 2 1.0 2.0 146 332
+ 0.565 1 2 cbr 500 ------- 2 1.0 2.0 147 333
d 0.565 1 2 cbr 500 ------- 2 1.0 2.0 147 333
+ 0.565 0 2 cbr 1000 ------- 1 0.0 2.0 186 334
+ 0.565 0 2 cbr 1000 ------- 1 0.0 2.0 187 335
d 0.565 0 2 cbr 1000 ------- 1 0.0 2.0 187 335
r 0.567 1 2 cbr 1000 ------- 2 1.0 2.0 28 96
+ 0.57 1 2 cbr 1000 ------- 2 1.0 2.0 148 336
d 0.57 1 2 cbr 1000 ------- 2 1.0 2.0 148 336
+ 0.57 1 2 cbr 500 ------- 2 1.0 2.0 149 337
d 0.57 1 2 cbr 500 ------- 2 1.0 2.0 149 337
+ 0.57 0 2 cbr 1000 ------- 1 0.0 2.0 188 338