n -t 0 -s 0 -S DLABEL -l "source1" -L ""
n -t 0 -s 1 -S DLABEL -l "source2" -L ""
n -t 0 -s 3 -S DLABEL -l "Destination" -L ""
V -t * -v 1.0a5 -a 0
A -t * -n 1 -p 0 -o 0xffffffff -c 31 -a 1
A -t * -h 1 -m 2147483647 -s 0
c -t * -i 1 -n Blue
c -t * -i 2 -n Red
n -t * -a 0 -s 0 -S UP -v circle -c black -i black
n -t * -a 1 -s 1 -S UP -v circle -c black -i black
n -t * -a 2 -s 2 -S UP -v circle -c black -i black
n -t * -a 3 -s 3 -S UP -v circle -c black -i black
l -t * -s 0 -d 2 -S UP -r 10000000 -D 0.01 -c black -o right-down
l -t * -s 1 -d 2 -S UP -r 50000000 -D 0.014999999999999999 -c black -o right-up
l -t * -s 2 -d 3 -S UP -r 1000000 -D 0.02 -c black -o right
+ -t 0.1 -s 1 -d 2 -p cbr -e 1000 -c 1 -i 0 -a 1 -x {1.0 3.0 0 ------- null}
- -t 0.1 -s 1 -d 2 -p cbr -e 1000 -c 1 -i 0 -a 1 -x {1.0 3.0 0 ------- null}
h -t 0.1 -s 1 -d 2 -p cbr -e 1000 -c 1 -i 0 -a 1 -x {1.0 3.0 -1 ------- null}
+ -t 0.1 -s 1 -d 2 -p cbr -e 1000 -c 1 -i 1 -a 1 -x {1.0 3.0 1 ------- null}
- -t 0.10016 -s 1 -d 2 -p cbr -e 1000 -c 1 -i 1 -a 1 -x {1.0 3.0 1 ------- null}
h -t 0.10016 -s 1 -d 2 -p cbr -e 1000 -c 1 -i 1 -a 1 -x {1.0 3.0 -1 ------- null}
+ -t 0.105 -s 1 -d 2 -p cbr -e 1000 -c 1 -i 2 -a 1 -x {1.0 3.0 2 ------- null}
- -t 0.105 -s 1 -d 2 -p cbr -e 1000 -c 1 -i 2 -a 1 -x {1.0 3.0 2 ------- null}
h -t 0.105 -s 1 -d 2 -p cbr -e 1000 -c 1 -i 2 -a 1 -x {1.0 3.0 -1 ------- null}
+ -t 0.105 -s 1 -d 2 -p cbr -e 1000 -c 1 -i 3 -a 1 -x {1.0 3.0 3 ------- null}
- -t 0.10516 -s 1 -d 2 -p cbr -e 1000 -c 1 -i 3 -a 1 -x {1.0 3.0 3 ------- null}
h -t 0.10516 -s 1 -d 2 -p cbr -e 1000 -c 1 -i 3 -a 1 -x {1.0 3.0 -1 ------- null}
+ -t 0.11 -s 1 -d 2 -p cbr -e 1000 -c 1 -i 4 -a 1 -x {1.0 3.0 4 ------- null}
- -t 0.11 -s 1 -d 2 -p cbr -e 1000 -c 1 -i 4 -a 1 -x {1.0 3.0 4 ------- null}
h -t 0.11 -s 1 -d 2 -p cbr -e 1000 -c 1 -i 4 -a 1 -x {1.0 3.0 -1 ------- null}
+ -t 0.11 -s 1 -d 2 -p cbr -e 1000 -c 1 -i 5 -a 1 -x {1.0 3.0 5 ------- null}
- -t 0.11016 -s 1 -d 2 -p cbr -e 1000 -c 1 -i 5 -a 1 -x {1.0 3.0 5 ------- null}
h -t 0.11016 -s 1 -d 2 -p cbr -e 1000 -c 1 -i 5 -a 1 -x {1.0 3.0 -1 ------- null}
+ -t 0.115 -s 1 -d 2 -p cbr -e 1000 -c 1 -i 6 -a 1 -x {1.0 3.0 6 ------- null}
- -t 0.115 -s 1 -d 2 -p cbr -e 1000 -c 1 -i 6 -a 1 -x {1.0 3.0 6 ------- null}
h -t 0.115 -s 1 -d 2 -p cbr -e 1000 -c 1 -i 6 -a 1 -x {1.0 3.0 -1 ------- null}
+ -t 0.115 -s 1 -d 2 -p cbr -e 1000 -c 1 -i 7 -a 1 -x {1.0 3.0 7 ------- null}
r -t 0.11516 -s 1 -d 2 -p cbr -e 1000 -c 1 -i 0 -a 1 -x {1.0 3.0 0 ------- null}
+ -t 0.11516 -s 2 -d 3 -p cbr -e 1000 -c 1 -i 0 -a 1 -x {1.0 3.0 0 ------- null}
- -t 0.11516 -s 2 -d 3 -p cbr -e 1000 -c 1 -i 0 -a 1 -x {1.0 3.0 0 ------- null}
h -t 0.11516 -s 2 -d 3 -p cbr -e 1000 -c 1 -i 0 -a 1 -x {1.0 3.0 -1 ------- null}
- -t 0.11516 -s 1 -d 2 -p cbr -e 1000 -c 1 -i 7 -a 1 -x {1.0 3.0 7 ------- null}
h -t 0.11516 -s 1 -d 2 -p cbr -e 1000 -c 1 -i 7 -a 1 -x {1.0 3.0 -1 ------- null}
r -t 0.11532 -s 1 -d 2 -p cbr -e 1000 -c 1 -i 1 -a 1 -x {1.0 3.0 1 ------- null}
+ -t 0.11532 -s 2 -d 3 -p cbr -e 1000 -c 1 -i 1 -a 1 -x {1.0 3.0 1 ------- null}
+ -t 0.12 -s 1 -d 2 -p cbr -e 1000 -c 1 -i 8 -a 1 -x {1.0 3.0 8 ------- null}
- -t 0.12 -s 1 -d 2 -p cbr -e 1000 -c 1 -i 8 -a 1 -x {1.0 3.0 8 ------- null}
h -t 0.12 -s 1 -d 2 -p cbr -e 1000 -c 1 -i 8 -a 1 -x {1.0 3.0 -1 ------- null}
+ -t 0.12 -s 1 -d 2 -p cbr -e 1000 -c 1 -i 9 -a 1 -x {1.0 3.0 9 ------- null}
r -t 0.12016 -s 1 -d 2 -p cbr -e 1000 -c 1 -i 2 -a 1 -x {1.0 3.0 2 ------- null}
+ -t 0.12016 -s 2 -d 3 -p cbr -e 1000 -c 1 -i 2 -a 1 -x {1.0 3.0 2 ------- null}
- -t 0.12016 -s 1 -d 2 -p cbr -e 1000 -c 1 -i 9 -a 1 -x {1.0 3.0 9 ------- null}
h -t 0.12016 -s 1 -d 2 -p cbr -e 1000 -c 1 -i 9 -a 1 -x {1.0 3.0 -1 ------- null}
r -t 0.12032 -s 1 -d 2 -p cbr -e 1000 -c 1 -i 3 -a 1 -x {1.0 3.0 3 ------- null}
+ -t 0.12032 -s 2 -d 3 -p cbr -e 1000 -c 1 -i 3 -a 1 -x {1.0 3.0 3 ------- null}
- -t 0.12316 -s 2 -d 3 -p cbr -e 1000 -c 1 -i 1 -a 1 -x {1.0 3.0 1 ------- null}
h -t 0.12316 -s 2 -d 3 -p cbr -e 1000 -c 1 -i 1 -a 1 -x {1.0 3.0 -1 ------- null}
+ -t 0.125 -s 1 -d 2 -p cbr -e 1000 -c 1 -i 10 -a 1 -x {1.0 3.0 10 ------- null}
- -t 0.125 -s 1 -d 2 -p cbr -e 1000 -c 1 -i 10 -a 1 -x {1.0 3.0 10 ------- null}
h -t 0.125 -s 1 -d 2 -p cbr -e 1000 -c 1 -i 10 -a 1 -x {1.0 3.0 -1 ------- null}
+ -t 0.125 -s 1 -d 2 -p cbr -e 1000 -c 1 -i 11 -a 1 -x {1.0 3.0 11 ------- null}
r -t 0.12516 -s 1 -d 2 -p cbr -e 1000 -c 1 -i 4 -a 1 -x {1.0 3.0 4 ------- null}
+ -t 0.12516 -s 2 -d 3 -p cbr -e 1000 -c 1 -i 4 -a 1 -x {1.0 3.0 4 ------- null}
- -t 0.12516 -s 1 -d 2 -p cbr -e 1000 -c 1 -i 11 -a 1 -x {1.0 3.0 11 ------- null}
h -t 0.12516 -s 1 -d 2 -p cbr -e 1000 -c 1 -i 11 -a 1 -x {1.0 3.0 -1 ------- null}
r -t 0.12532 -s 1 -d 2 -p cbr -e 1000 -c 1 -i 5 -a 1 -x {1.0 3.0 5 ------- null}
+ -t 0.12532 -s 2 -d 3 -p cbr -e 1000 -c 1 -i 5 -a 1 -x {1.0 3.0 5 ------- null}
+ -t 0.13 -s 1 -d 2 -p cbr -e 1000 -c 1 -i 12 -a 1 -x {1.0 3.0 12 ------- null}
- -t 0.13 -s 1 -d 2 -p cbr -e 1000 -c 1 -i 12 -a 1 -x {1.0 3.0 12 ------- null}
h -t 0.13 -s 1 -d 2 -p cbr -e 1000 -c 1 -i 12 -a 1 -x {1.0 3.0 -1 ------- null}
+ -t 0.13 -s 1 -d 2 -p cbr -e 1000 -c 1 -i 13 -a 1 -x {1.0 3.0 13 ------- null}
r -t 0.13016 -s 1 -d 2 -p cbr -e 1000 -c 1 -i 6 -a 1 -x {1.0 3.0 6 ------- null}
+ -t 0.13016 -s 2 -d 3 -p cbr -e 1000 -c 1 -i 6 -a 1 -x {1.0 3.0 6 ------- null}
- -t 0.13016 -s 1 -d 2 -p cbr -e 1000 -c 1 -i 13 -a 1 -x {1.0 3.0 13 ------- null}
h -t 0.13016 -s 1 -d 2 -p cbr -e 1000 -c 1 -i 13 -a 1 -x {1.0 3.0 -1 ------- null}
r -t 0.13032 -s 1 -d 2 -p cbr -e 1000 -c 1 -i 7 -a 1 -x {1.0 3.0 7 ------- null}
+ -t 0.13032 -s 2 -d 3 -p cbr -e 1000 -c 1 -i 7 -a 1 -x {1.0 3.0 7 ------- null}
- -t 0.13116 -s 2 -d 3 -p cbr -e 1000 -c 1 -i 2 -a 1 -x {1.0 3.0 2 ------- null}
h -t 0.13116 -s 2 -d 3 -p cbr -e 1000 -c 1 -i 2 -a 1 -x {1.0 3.0 -1 ------- null}
+ -t 0.135 -s 1 -d 2 -p cbr -e 1000 -c 1 -i 14 -a 1 -x {1.0 3.0 14 ------- null}
- -t 0.135 -s 1 -d 2 -p cbr -e 1000 -c 1 -i 14 -a 1 -x {1.0 3.0 14 ------- null}
h -t 0.135 -s 1 -d 2 -p cbr -e 1000 -c 1 -i 14 -a 1 -x {1.0 3.0 -1 ------- null}
+ -t 0.135 -s 1 -d 2 -p cbr -e 1000 -c 1 -i 15 -a 1 -x {1.0 3.0 15 ------- null}
r -t 0.13516 -s 1 -d 2 -p cbr -e 1000 -c 1 -i 8 -a 1 -x {1.0 3.0 8 ------- null}
+ -t 0.13516 -s 2 -d 3 -p cbr -e 1000 -c 1 -i 8 -a 1 -x {1.0 3.0 8 ------- null}
- -t 0.13516 -s 1 -d 2 -p cbr -e 1000 -c 1 -i 15 -a 1 -x {1.0 3.0 15 ------- null}
h -t 0.13516 -s 1 -d 2 -p cbr -e 1000 -c 1 -i 15 -a 1 -x {1.0 3.0 -1 ------- null}
r -t 0.13532 -s 1 -d 2 -p cbr -e 1000 -c 1 -i 9 -a 1 -x {1.0 3.0 9 ------- null}
+ -t 0.13532 -s 2 -d 3 -p cbr -e 1000 -c 1 -i 9 -a 1 -x {1.0 3.0 9 ------- null}
- -t 0.13916 -s 2 -d 3 -p cbr -e 1000 -c 1 -i 3 -a 1 -x {1.0 3.0 3 ------- null}
h -t 0.13916 -s 2 -d 3 -p cbr -e 1000 -c 1 -i 3 -a 1 -x {1.0 3.0 -1 ------- null}
+ -t 0.14 -s 1 -d 2 -p cbr -e 1000 -c 1 -i 16 -a 1 -x {1.0 3.0 16 ------- null}
- -t 0.14 -s 1 -d 2 -p cbr -e 1000 -c 1 -i 16 -a 1 -x {1.0 3.0 16 ------- null}
h -t 0.14 -s 1 -d 2 -p cbr -e 1000 -c 1 -i 16 -a 1 -x {1.0 3.0 -1 ------- null}
+ -t 0.14 -s 1 -d 2 -p cbr -e 1000 -c 1 -i 17 -a 1 -x {1.0 3.0 17 ------- null}
r -t 0.14016 -s 1 -d 2 -p cbr -e 1000 -c 1 -i 10 -a 1 -x {1.0 3.0 10 ------- null}
+ -t 0.14016 -s 2 -d 3 -p cbr -e 1000 -c 1 -i 10 -a 1 -x {1.0 3.0 10 ------- null}
- -t 0.14016 -s 1 -d 2 -p cbr -e 1000 -c 1 -i 17 -a 1 -x {1.0 3.0 17 ------- null}
h -t 0.14016 -s 1 -d 2 -p cbr -e 1000 -c 1 -i 17 -a 1 -x {1.0 3.0 -1 ------- null}
r -t 0.14032 -s 1 -d 2 -p cbr -e 1000 -c 1 -i 11 -a 1 -x {1.0 3.0 11 ------- null}
+ -t 0.14032 -s 2 -d 3 -p cbr -e 1000 -c 1 -i 11 -a 1 -x {1.0 3.0 11 ------- null}
r -t 0.14316 -s 2 -d 3 -p cbr -e 1000 -c 1 -i 0 -a 1 -x {1.0 3.0 0 ------- null}
+ -t 0.145 -s 1 -d 2 -p cbr -e 1000 -c 1 -i 18 -a 1 -x {1.0 3.0 18 ------- null}
- -t 0.145 -s 1 -d 2 -p cbr -e 1000 -c 1 -i 18 -a 1 -x {1.0 3.0 18 ------- null}
h -t 0.145 -s 1 -d 2 -p cbr -e 1000 -c 1 -i 18 -a 1 -x {1.0 3.0 -1 ------- null}
+ -t 0.145 -s 1 -d 2 -p cbr -e 1000 -c 1 -i 19 -a 1 -x {1.0 3.0 19 ------- null}
r -t 0.14516 -s 1 -d 2 -p cbr -e 1000 -c 1 -i 12 -a 1 -x {1.0 3.0 12 ------- null}
+ -t 0.14516 -s 2 -d 3 -p cbr -e 1000 -c 1 -i 12 -a 1 -x {1.0 3.0 12 ------- null}
- -t 0.14516 -s 1 -d 2 -p cbr -e 1000 -c 1 -i 19 -a 1 -x {1.0 3.0 19 ------- null}
h -t 0.14516 -s 1 -d 2 -p cbr -e 1000 -c 1 -i 19 -a 1 -x {1.0 3.0 -1 ------- null}
r -t 0.14532 -s 1 -d 2 -p cbr -e 1000 -c 1 -i 13 -a 1 -x {1.0 3.0 13 ------- null}
+ -t 0.14532 -s 2 -d 3 -p cbr -e 1000 -c 1 -i 13 -a 1 -x {1.0 3.0 13 ------- null}
- -t 0.14716 -s 2 -d 3 -p cbr -e 1000 -c 1 -i 4 -a 1 -x {1.0 3.0 4 ------- null}
h -t 0.14716 -s 2 -d 3 -p cbr -e 1000 -c 1 -i 4 -a 1 -x {1.0 3.0 -1 ------- null}
+ -t 0.15 -s 1 -d 2 -p cbr -e 1000 -c 1 -i 20 -a 1 -x {1.0 3.0 20 ------- null}
- -t 0.15 -s 1 -d 2 -p cbr -e 1000 -c 1 -i 20 -a 1 -x {1.0 3.0 20 ------- null}
h -t 0.15 -s 1 -d 2 -p cbr -e 1000 -c 1 -i 20 -a 1 -x {1.0 3.0 -1 ------- null}
+ -t 0.15 -s 1 -d 2 -p cbr -e 1000 -c 1 -i 21 -a 1 -x {1.0 3.0 21 ------- null}
r -t 0.15016 -s 1 -d 2 -p cbr -e 1000 -c 1 -i 14 -a 1 -x {1.0 3.0 14 ------- null}
+ -t 0.15016 -s 2 -d 3 -p cbr -e 1000 -c 1 -i 14 -a 1 -x {1.0 3.0 14 ------- null}
- -t 0.15016 -s 1 -d 2 -p cbr -e 1000 -c 1 -i 21 -a 1 -x {1.0 3.0 21 ------- null}
h -t 0.15016 -s 1 -d 2 -p cbr -e 1000 -c 1 -i 21 -a 1 -x {1.0 3.0 -1 ------- null}
r -t 0.15032 -s 1 -d 2 -p cbr -e 1000 -c 1 -i 15 -a 1 -x {1.0 3.0 15 ------- null}
+ -t 0.15032 -s 2 -d 3 -p cbr -e 1000 -c 1 -i 15 -a 1 -x {1.0 3.0 15 ------- null}
r -t 0.15116 -s 2 -d 3 -p cbr -e 1000 -c 1 -i 1 -a 1 -x {1.0 3.0 1 ------- null}
+ -t 0.155 -s 1 -d 2 -p cbr -e 1000 -c 1 -i 22 -a 1 -x {1.0 3.0 22 ------- null}
- -t 0.155 -s 1 -d 2 -p cbr -e 1000 -c 1 -i 22 -a 1 -x {1.0 3.0 22 ------- null}
h -t 0.155 -s 1 -d 2 -p cbr -e 1000 -c 1 -i 22 -a 1 -x {1.0 3.0 -1 ------- null}
+ -t 0.155 -s 1 -d 2 -p cbr -e 1000 -c 1 -i 23 -a 1 -x {1.0 3.0 23 ------- null}
r -t 0.15516 -s 1 -d 2 -p cbr -e 1000 -c 1 -i 16 -a 1 -x {1.0 3.0 16 ------- null}
+ -t 0.15516 -s 2 -d 3 -p cbr -e 1000 -c 1 -i 16 -a 1 -x {1.0 3.0 16 ------- null}
- -t 0.15516 -s 2 -d 3 -p cbr -e 1000 -c 1 -i 5 -a 1 -x {1.0 3.0 5 ------- null}
h -t 0.15516 -s 2 -d 3 -p cbr -e 1000 -c 1 -i 5 -a 1 -x {1.0 3.0 -1 ------- null}
- -t 0.15516 -s 1 -d 2 -p cbr -e 1000 -c 1 -i 23 -a 1 -x {1.0 3.0 23 ------- null}
h -t 0.15516 -s 1 -d 2 -p cbr -e 1000 -c 1 -i 23 -a 1 -x {1.0 3.0 -1 ------- null}
r -t 0.15532 -s 1 -d 2 -p cbr -e 1000 -c 1 -i 17 -a 1 -x {1.0 3.0 17 ------- null}
+ -t 0.15532 -s 2 -d 3 -p cbr -e 1000 -c 1 -i 17 -a 1 -x {1.0 3.0 17 ------- null}
r -t 0.15916 -s 2 -d 3 -p cbr -e 1000 -c 1 -i 2 -a 1 -x {1.0 3.0 2 ------- null}
+ -t 0.16 -s 1 -d 2 -p cbr -e 1000 -c 1 -i 24 -a 1 -x {1.0 3.0 24 ------- null}
- -t 0.16 -s 1 -d 2 -p cbr -e 1000 -c 1 -i 24 -a 1 -x {1.0 3.0 24 ------- null}
h -t 0.16 -s 1 -d 2 -p cbr -e 1000 -c 1 -i 24 -a 1 -x {1.0 3.0 -1 ------- null}
+ -t 0.16 -s 1 -d 2 -p cbr -e 1000 -c 1 -i 25 -a 1 -x {1.0 3.0 25 ------- null}
r -t 0.16016 -s 1 -d 2 -p cbr -e 1000 -c 1 -i 18 -a 1 -x {1.0 3.0 18 ------- null}
+ -t 0.16016 -s 2 -d 3 -p cbr -e 1000 -c 1 -i 18 -a 1 -x {1.0 3.0 18 ------- null}
- -t 0.16016 -s 1 -d 2 -p cbr -e 1000 -c 1 -i 25 -a 1 -x {1.0 3.0 25 ------- null}
h -t 0.16016 -s 1 -d 2 -p cbr -e 1000 -c 1 -i 25 -a 1 -x {1.0 3.0 -1 ------- null}
r -t 0.16032 -s 1 -d 2 -p cbr -e 1000 -c 1 -i 19 -a 1 -x {1.0 3.0 19 ------- null}
+ -t 0.16032 -s 2 -d 3 -p cbr -e 1000 -c 1 -i 19 -a 1 -x {1.0 3.0 19 ------- null}
- -t 0.16316 -s 2 -d 3 -p cbr -e 1000 -c 1 -i 6 -a 1 -x {1.0 3.0 6 ------- null}
h -t 0.16316 -s 2 -d 3 -p cbr -e 1000 -c 1 -i 6 -a 1 -x {1.0 3.0 -1 ------- null}
+ -t 0.165 -s 1 -d 2 -p cbr -e 1000 -c 1 -i 26 -a 1 -x {1.0 3.0 26 ------- null}
- -t 0.165 -s 1 -d 2 -p cbr -e 1000 -c 1 -i 26 -a 1 -x {1.0 3.0 26 ------- null}
h -t 0.165 -s 1 -d 2 -p cbr -e 1000 -c 1 -i 26 -a 1 -x {1.0 3.0 -1 ------- null}
+ -t 0.165 -s 1 -d 2 -p cbr -e 1000 -c 1 -i 27 -a 1 -x {1.0 3.0 27 ------- null}
r -t 0.16516 -s 1 -d 2 -p cbr -e 1000 -c 1 -i 20 -a 1 -x {1.0 3.0 20 ------- null}
+ -t 0.16516 -s 2 -d 3 -p cbr -e 1000 -c 1 -i 20 -a 1 -x {1.0 3.0 20 ------- null}
- -t 0.16516 -s 1 -d 2 -p cbr -e 1000 -c 1 -i 27 -a 1 -x {1.0 3.0 27 ------- null}
h -t 0.16516 -s 1 -d 2 -p cbr -e 1000 -c 1 -i 27 -a 1 -x {1.0 3.0 -1 ------- null}
r -t 0.16532 -s 1 -d 2 -p cbr -e 1000 -c 1 -i 21 -a 1 -x {1.0 3.0 21 ------- null}
+ -t 0.16532 -s 2 -d 3 -p cbr -e 1000 -c 1 -i 21 -a 1 -x {1.0 3.0 21 ------- null}
r -t 0.16716 -s 2 -d 3 -p cbr -e 1000 -c 1 -i 3 -a 1 -x {1.0 3.0 3 ------- null}
+ -t 0.17 -s 1 -d 2 -p cbr -e 1000 -c 1 -i 28 -a 1 -x {1.0 3.0 28 ------- null}
- -t 0.17 -s 1 -d 2 -p cbr -e 1000 -c 1 -i 28 -a 1 -x {1.0 3.0 28 ------- null}
h -t 0.17 -s 1 -d 2 -p cbr -e 1000 -c 1 -i 28 -a 1 -x {1.0 3.0 -1 ------- null}
+ -t 0.17 -s 1 -d 2 -p cbr -e 1000 -c 1 -i 29 -a 1 -x {1.0 3.0 29 ------- null}
r -t 0.17016 -s 1 -d 2 -p cbr -e 1000 -c 1 -i 22 -a 1 -x {1.0 3.0 22 ------- null}
+ -t 0.17016 -s 2 -d 3 -p cbr -e 1000 -c 1 -i 22 -a 1 -x {1.0 3.0 22 ------- null}
- -t 0.17016 -s 1 -d 2 -p cbr -e 1000 -c 1 -i 29 -a 1 -x {1.0 3.0 29 ------- null}
h -t 0.17016 -s 1 -d 2 -p cbr -e 1000 -c 1 -i 29 -a 1 -x {1.0 3.0 -1 ------- null}
r -t 0.17032 -s 1 -d 2 -p cbr -e 1000 -c 1 -i 23 -a 1 -x {1.0 3.0 23 ------- null}
+ -t 0.17032 -s 2 -d 3 -p cbr -e 1000 -c 1 -i 23 -a 1 -x {1.0 3.0 23 ------- null}
- -t 0.17116 -s 2 -d 3 -p cbr -e 1000 -c 1 -i 7 -a 1 -x {1.0 3.0 7 ------- null}
h -t 0.17116 -s 2 -d 3 -p cbr -e 1000 -c 1 -i 7 -a 1 -x {1.0 3.0 -1 ------- null}
+ -t 0.175 -s 1 -d 2 -p cbr -e 1000 -c 1 -i 30 -a 1 -x {1.0 3.0 30 ------- null}
- -t 0.175 -s 1 -d 2 -p cbr -e 1000 -c 1 -i 30 -a 1 -x {1.0 3.0 30 ------- null}
h -t 0.175 -s 1 -d 2 -p cbr -e 1000 -c 1 -i 30 -a 1 -x {1.0 3.0 -1 ------- null}
+ -t 0.175 -s 1 -d 2 -p cbr -e 1000 -c 1 -i 31 -a 1 -x {1.0 3.0 31 ------- null}
r -t 0.17516 -s 2 -d 3 -p cbr -e 1000 -c 1 -i 4 -a 1 -x {1.0 3.0 4 ------- null}
r -t 0.17516 -s 1 -d 2 -p cbr -e 1000 -c 1 -i 24 -a 1 -x {1.0 3.0 24 ------- null}
+ -t 0.17516 -s 2 -d 3 -p cbr -e 1000 -c 1 -i 24 -a 1 -x {1.0 3.0 24 ------- null}
- -t 0.17516 -s 1 -d 2 -p cbr -e 1000 -c 1 -i 31 -a 1 -x {1.0 3.0 31 ------- null}
h -t 0.17516 -s 1 -d 2 -p cbr -e 1000 -c 1 -i 31 -a 1 -x {1.0 3.0 -1 ------- null}
r -t 0.17532 -s 1 -d 2 -p cbr -e 1000 -c 1 -i 25 -a 1 -x {1.0 3.0 25 ------- null}
+ -t 0.17532 -s 2 -d 3 -p cbr -e 1000 -c 1 -i 25 -a 1 -x {1.0 3.0 25 ------- null}
- -t 0.17916 -s 2 -d 3 -p cbr -e 1000 -c 1 -i 8 -a 1 -x {1.0 3.0 8 ------- null}
h -t 0.17916 -s 2 -d 3 -p cbr -e 1000 -c 1 -i 8 -a 1 -x {1.0 3.0 -1 ------- null}
+ -t 0.18 -s 1 -d 2 -p cbr -e 1000 -c 1 -i 32 -a 1 -x {1.0 3.0 32 ------- null}
- -t 0.18 -s 1 -d 2 -p cbr -e 1000 -c 1 -i 32 -a 1 -x {1.0 3.0 32 ------- null}
h -t 0.18 -s 1 -d 2 -p cbr -e 1000 -c 1 -i 32 -a 1 -x {1.0 3.0 -1 ------- null}
+ -t 0.18 -s 1 -d 2 -p cbr -e 1000 -c 1 -i 33 -a 1 -x {1.0 3.0 33 ------- null}
r -t 0.18016 -s 1 -d 2 -p cbr -e 1000 -c 1 -i 26 -a 1 -x {1.0 3.0 26 ------- null}
+ -t 0.18016 -s 2 -d 3 -p cbr -e 1000 -c 1 -i 26 -a 1 -x {1.0 3.0 26 ------- null}
- -t 0.18016 -s 1 -d 2 -p cbr -e 1000 -c 1 -i 33 -a 1 -x {1.0 3.0 33 ------- null}
h -t 0.18016 -s 1 -d 2 -p cbr -e 1000 -c 1 -i 33 -a 1 -x {1.0 3.0 -1 ------- null}
r -t 0.18032 -s 1 -d 2 -p cbr -e 1000 -c 1 -i 27 -a 1 -x {1.0 3.0 27 ------- null}
+ -t 0.18032 -s 2 -d 3 -p cbr -e 1000 -c 1 -i 27 -a 1 -x {1.0 3.0 27 ------- null}
r -t 0.18316 -s 2 -d 3 -p cbr -e 1000 -c 1 -i 5 -a 1 -x {1.0 3.0 5 ------- null}
+ -t 0.185 -s 1 -d 2 -p cbr -e 1000 -c 1 -i 34 -a 1 -x {1.0 3.0 34 ------- null}
- -t 0.185 -s 1 -d 2 -p cbr -e 1000 -c 1 -i 34 -a 1 -x {1.0 3.0 34 ------- null}
h -t 0.185 -s 1 -d 2 -p cbr -e 1000 -c 1 -i 34 -a 1 -x {1.0 3.0 -1 ------- null}
+ -t 0.185 -s 1 -d 2 -p cbr -e 1000 -c 1 -i 35 -a 1 -x {1.0 3.0 35 ------- null}
r -t 0.18516 -s 1 -d 2 -p cbr -e 1000 -c 1 -i 28 -a 1 -x {1.0 3.0 28 ------- null}
+ -t 0.18516 -s 2 -d 3 -p cbr -e 1000 -c 1 -i 28 -a 1 -x {1.0 3.0 28 ------- null}
- -t 0.18516 -s 1 -d 2 -p cbr -e 1000 -c 1 -i 35 -a 1 -x {1.0 3.0 35 ------- null}
h -t 0.18516 -s 1 -d 2 -p cbr -e 1000 -c 1 -i 35 -a 1 -x {1.0 3.0 -1 ------- null}
r -t 0.18532 -s 1 -d 2 -p cbr -e 1000 -c 1 -i 29 -a 1 -x {1.0 3.0 29 ------- null}
+ -t 0.18532 -s 2 -d 3 -p cbr -e 1000 -c 1 -i 29 -a 1 -x {1.0 3.0 29 ------- null}
- -t 0.18716 -s 2 -d 3 -p cbr -e 1000 -c 1 -i 9 -a 1 -x {1.0 3.0 9 ------- null}
h -t 0.18716 -s 2 -d 3 -p cbr -e 1000 -c 1 -i 9 -a 1 -x {1.0 3.0 -1 ------- null}
+ -t 0.19 -s 1 -d 2 -p cbr -e 1000 -c 1 -i 36 -a 1 -x {1.0 3.0 36 ------- null}
- -t 0.19 -s 1 -d 2 -p cbr -e 1000 -c 1 -i 36 -a 1 -x {1.0 3.0 36 ------- null}
h -t 0.19 -s 1 -d 2 -p cbr -e 1000 -c 1 -i 36 -a 1 -x {1.0 3.0 -1 ------- null}
+ -t 0.19 -s 1 -d 2 -p cbr -e 1000 -c 1 -i 37 -a 1 -x {1.0 3.0 37 ------- null}
r -t 0.19016 -s 1 -d 2 -p cbr -e 1000 -c 1 -i 30 -a 1 -x {1.0 3.0 30 ------- null}
+ -t 0.19016 -s 2 -d 3 -p cbr -e 1000 -c 1 -i 30 -a 1 -x {1.0 3.0 30 ------- null}
- -t 0.19016 -s 1 -d 2 -p cbr -e 1000 -c 1 -i 37 -a 1 -x {1.0 3.0 37 ------- null}
h -t 0.19016 -s 1 -d 2 -p cbr -e 1000 -c 1 -i 37 -a 1 -x {1.0 3.0 -1 ------- null}
r -t 0.19032 -s 1 -d 2 -p cbr -e 1000 -c 1 -i 31 -a 1 -x {1.0 3.0 31 ------- null}
+ -t 0.19032 -s 2 -d 3 -p cbr -e 1000 -c 1 -i 31 -a 1 -x {1.0 3.0 31 ------- null}
r -t 0.19116 -s 2 -d 3 -p cbr -e 1000 -c 1 -i 6 -a 1 -x {1.0 3.0 6 ------- null}
+ -t 0.195 -s 1 -d 2 -p cbr -e 1000 -c 1 -i 38 -a 1 -x {1.0 3.0 38 ------- null}
- -t 0.195 -s 1 -d 2 -p cbr -e 1000 -c 1 -i 38 -a 1 -x {1.0 3.0 38 ------- null}
h -t 0.195 -s 1 -d 2 -p cbr -e 1000 -c 1 -i 38 -a 1 -x {1.0 3.0 -1 ------- null}
+ -t 0.195 -s 1 -d 2 -p cbr -e 1000 -c 1 -i 39 -a 1 -x {1.0 3.0 39 ------- null}
r -t 0.19516 -s 1 -d 2 -p cbr -e 1000 -c 1 -i 32 -a 1 -x {1.0 3.0 32 ------- null}
+ -t 0.19516 -s 2 -d 3 -p cbr -e 1000 -c 1 -i 32 -a 1 -x {1.0 3.0 32 ------- null}
- -t 0.19516 -s 2 -d 3 -p cbr -e 1000 -c 1 -i 10 -a 1 -x {1.0 3.0 10 ------- null}
h -t 0.19516 -s 2 -d 3 -p cbr -e 1000 -c 1 -i 10 -a 1 -x {1.0 3.0 -1 ------- null}
- -t 0.19516 -s 1 -d 2 -p cbr -e 1000 -c 1 -i 39 -a 1 -x {1.0 3.0 39 ------- null}
h -t 0.19516 -s 1 -d 2 -p cbr -e 1000 -c 1 -i 39 -a 1 -x {1.0 3.0 -1 ------- null}
r -t 0.19532 -s 1 -d 2 -p cbr -e 1000 -c 1 -i 33 -a 1 -x {1.0 3.0 33 ------- null}
+ -t 0.19532 -s 2 -d 3 -p cbr -e 1000 -c 1 -i 33 -a 1 -x {1.0 3.0 33 ------- null}
r -t 0.19916 -s 2 -d 3 -p cbr -e 1000 -c 1 -i 7 -a 1 -x {1.0 3.0 7 ------- null}
+ -t 0.2 -s 0 -d 2 -p tcp -e 40 -c 2 -i 40 -a 2 -x {0.0 3.1 0 ------- null}
- -t 0.2 -s 0 -d 2 -p tcp -e 40 -c 2 -i 40 -a 2 -x {0.0 3.1 0 ------- null}
h -t 0.2 -s 0 -d 2 -p tcp -e 40 -c 2 -i 40 -a 2 -x {0.0 3.1 -1 ------- null}
+ -t 0.2 -s 1 -d 2 -p cbr -e 1000 -c 1 -i 41 -a 1 -x {1.0 3.0 40 ------- null}
- -t 0.2 -s 1 -d 2 -p cbr -e 1000 -c 1 -i 41 -a 1 -x {1.0 3.0 40 ------- null}
h -t 0.2 -s 1 -d 2 -p cbr -e 1000 -c 1 -i 41 -a 1 -x {1.0 3.0 -1 ------- null}
+ -t 0.2 -s 1 -d 2 -p cbr -e 1000 -c 1 -i 42 -a 1 -x {1.0 3.0 41 ------- null}
r -t 0.20016 -s 1 -d 2 -p cbr -e 1000 -c 1 -i 34 -a 1 -x {1.0 3.0 34 ------- null}
+ -t 0.20016 -s 2 -d 3 -p cbr -e 1000 -c 1 -i 34 -a 1 -x {1.0 3.0 34 ------- null}
- -t 0.20016 -s 1 -d 2 -p cbr -e 1000 -c 1 -i 42 -a 1 -x {1.0 3.0 41 ------- null}
h -t 0.20016 -s 1 -d 2 -p cbr -e 1000 -c 1 -i 42 -a 1 -x {1.0 3.0 -1 ------- null}
r -t 0.20032 -s 1 -d 2 -p cbr -e 1000 -c 1 -i 35 -a 1 -x {1.0 3.0 35 ------- null}
+ -t 0.20032 -s 2 -d 3 -p cbr -e 1000 -c 1 -i 35 -a 1 -x {1.0 3.0 35 ------- null}
- -t 0.20316 -s 2 -d 3 -p cbr -e 1000 -c 1 -i 11 -a 1 -x {1.0 3.0 11 ------- null}
h -t 0.20316 -s 2 -d 3 -p cbr -e 1000 -c 1 -i 11 -a 1 -x {1.0 3.0 -1 ------- null}
+ -t 0.205 -s 1 -d 2 -p cbr -e 1000 -c 1 -i 43 -a 1 -x {1.0 3.0 42 ------- null}
- -t 0.205 -s 1 -d 2 -p cbr -e 1000 -c 1 -i 43 -a 1 -x {1.0 3.0 42 ------- null}
h -t 0.205 -s 1 -d 2 -p cbr -e 1000 -c 1 -i 43 -a 1 -x {1.0 3.0 -1 ------- null}
+ -t 0.205 -s 1 -d 2 -p cbr -e 1000 -c 1 -i 44 -a 1 -x {1.0 3.0 43 ------- null}
r -t 0.20516 -s 1 -d 2 -p cbr -e 1000 -c 1 -i 36 -a 1 -x {1.0 3.0 36 ------- null}
+ -t 0.20516 -s 2 -d 3 -p cbr -e 1000 -c 1 -i 36 -a 1 -x {1.0 3.0 36 ------- null}
- -t 0.20516 -s 1 -d 2 -p cbr -e 1000 -c 1 -i 44 -a 1 -x {1.0 3.0 43 ------- null}
h -t 0.20516 -s 1 -d 2 -p cbr -e 1000 -c 1 -i 44 -a 1 -x {1.0 3.0 -1 ------- null}
r -t 0.20532 -s 1 -d 2 -p cbr -e 1000 -c 1 -i 37 -a 1 -x {1.0 3.0 37 ------- null}
+ -t 0.20532 -s 2 -d 3 -p cbr -e 1000 -c 1 -i 37 -a 1 -x {1.0 3.0 37 ------- null}
r -t 0.20716 -s 2 -d 3 -p cbr -e 1000 -c 1 -i 8 -a 1 -x {1.0 3.0 8 ------- null}
+ -t 0.21 -s 1 -d 2 -p cbr -e 1000 -c 1 -i 45 -a 1 -x {1.0 3.0 44 ------- null}
- -t 0.21 -s 1 -d 2 -p cbr -e 1000 -c 1 -i 45 -a 1 -x {1.0 3.0 44 ------- null}
h -t 0.21 -s 1 -d 2 -p cbr -e 1000 -c 1 -i 45 -a 1 -x {1.0 3.0 -1 ------- null}
+ -t 0.21 -s 1 -d 2 -p cbr -e 1000 -c 1 -i 46 -a 1 -x {1.0 3.0 45 ------- null}
r -t 0.210032 -s 0 -d 2 -p tcp -e 40 -c 2 -i 40 -a 2 -x {0.0 3.1 0 ------- null}
+ -t 0.210032 -s 2 -d 3 -p tcp -e 40 -c 2 -i 40 -a 2 -x {0.0 3.1 0 ------- null}
r -t 0.21016 -s 1 -d 2 -p cbr -e 1000 -c 1 -i 38 -a 1 -x {1.0 3.0 38 ------- null}
+ -t 0.21016 -s 2 -d 3 -p cbr -e 1000 -c 1 -i 38 -a 1 -x {1.0 3.0 38 ------- null}
- -t 0.21016 -s 1 -d 2 -p cbr -e 1000 -c 1 -i 46 -a 1 -x {1.0 3.0 45 ------- null}
h -t 0.21016 -s 1 -d 2 -p cbr -e 1000 -c 1 -i 46 -a 1 -x {1.0 3.0 -1 ------- null}
r -t 0.21032 -s 1 -d 2 -p cbr -e 1000 -c 1 -i 39 -a 1 -x {1.0 3.0 39 ------- null}
+ -t 0.21032 -s 2 -d 3 -p cbr -e 1000 -c 1 -i 39 -a 1 -x {1.0 3.0 39 ------- null}
- -t 0.21116 -s 2 -d 3 -p cbr -e 1000 -c 1 -i 12 -a 1 -x {1.0 3.0 12 ------- null}
h -t 0.21116 -s 2 -d 3 -p cbr -e 1000 -c 1 -i 12 -a 1 -x {1.0 3.0 -1 ------- null}
+ -t 0.215 -s 1 -d 2 -p cbr -e 1000 -c 1 -i 47 -a 1 -x {1.0 3.0 46 ------- null}
- -t 0.215 -s 1 -d 2 -p cbr -e 1000 -c 1 -i 47 -a 1 -x {1.0 3.0 46 ------- null}
h -t 0.215 -s 1 -d 2 -p cbr -e 1000 -c 1 -i 47 -a 1 -x {1.0 3.0 -1 ------- null}
+ -t 0.215 -s 1 -d 2 -p cbr -e 1000 -c 1 -i 48 -a 1 -x {1.0 3.0 47 ------- null}
r -t 0.21516 -s 2 -d 3 -p cbr -e 1000 -c 1 -i 9 -a 1 -x {1.0 3.0 9 ------- null}
r -t 0.21516 -s 1 -d 2 -p cbr -e 1000 -c 1 -i 41 -a 1 -x {1.0 3.0 40 ------- null}
+ -t 0.21516 -s 2 -d 3 -p cbr -e 1000 -c 1 -i 41 -a 1 -x {1.0 3.0 40 ------- null}
- -t 0.21516 -s 1 -d 2 -p cbr -e 1000 -c 1 -i 48 -a 1 -x {1.0 3.0 47 ------- null}
h -t 0.21516 -s 1 -d 2 -p cbr -e 1000 -c 1 -i 48 -a 1 -x {1.0 3.0 -1 ------- null}
r -t 0.21532 -s 1 -d 2 -p cbr -e 1000 -c 1 -i 42 -a 1 -x {1.0 3.0 41 ------- null}
+ -t 0.21532 -s 2 -d 3 -p cbr -e 1000 -c 1 -i 42 -a 1 -x {1.0 3.0 41 ------- null}
- -t 0.21916 -s 2 -d 3 -p cbr -e 1000 -c 1 -i 13 -a 1 -x {1.0 3.0 13 ------- null}
h -t 0.21916 -s 2 -d 3 -p cbr -e 1000 -c 1 -i 13 -a 1 -x {1.0 3.0 -1 ------- null}
+ -t 0.22 -s 1 -d 2 -p cbr -e 1000 -c 1 -i 49 -a 1 -x {1.0 3.0 48 ------- null}
- -t 0.22 -s 1 -d 2 -p cbr -e 1000 -c 1 -i 49 -a 1 -x {1.0 3.0 48 ------- null}
h -t 0.22 -s 1 -d 2 -p cbr -e 1000 -c 1 -i 49 -a 1 -x {1.0 3.0 -1 ------- null}
+ -t 0.22 -s 1 -d 2 -p cbr -e 1000 -c 1 -i 50 -a 1 -x {1.0 3.0 49 ------- null}
r -t 0.22016 -s 1 -d 2 -p cbr -e 1000 -c 1 -i 43 -a 1 -x {1.0 3.0 42 ------- null}
+ -t 0.22016 -s 2 -d 3 -p cbr -e 1000 -c 1 -i 43 -a 1 -x {1.0 3.0 42 ------- null}
- -t 0.22016 -s 1 -d 2 -p cbr -e 1000 -c 1 -i 50 -a 1 -x {1.0 3.0 49 ------- null}
h -t 0.22016 -s 1 -d 2 -p cbr -e 1000 -c 1 -i 50 -a 1 -x {1.0 3.0 -1 ------- null}
r -t 0.22032 -s 1 -d 2 -p cbr -e 1000 -c 1 -i 44 -a 1 -x {1.0 3.0 43 ------- null}
+ -t 0.22032 -s 2 -d 3 -p cbr -e 1000 -c 1 -i 44 -a 1 -x {1.0 3.0 43 ------- null}
r -t 0.22316 -s 2 -d 3 -p cbr -e 1000 -c 1 -i 10 -a 1 -x {1.0 3.0 10 ------- null}
+ -t 0.225 -s 1 -d 2 -p cbr -e 1000 -c 1 -i 51 -a 1 -x {1.0 3.0 50 ------- null}
- -t 0.225 -s 1 -d 2 -p cbr -e 1000 -c 1 -i 51 -a 1 -x {1.0 3.0 50 ------- null}
h -t 0.225 -s 1 -d 2 -p cbr -e 1000 -c 1 -i 51 -a 1 -x {1.0 3.0 -1 ------- null}
+ -t 0.225 -s 1 -d 2 -p cbr -e 1000 -c 1 -i 52 -a 1 -x {1.0 3.0 51 ------- null}
r -t 0.22516 -s 1 -d 2 -p cbr -e 1000 -c 1 -i 45 -a 1 -x {1.0 3.0 44 ------- null}
+ -t 0.22516 -s 2 -d 3 -p cbr -e 1000 -c 1 -i 45 -a 1 -x {1.0 3.0 44 ------- null}
- -t 0.22516 -s 1 -d 2 -p cbr -e 1000 -c 1 -i 52 -a 1 -x {1.0 3.0 51 ------- null}
h -t 0.22516 -s 1 -d 2 -p cbr -e 1000 -c 1 -i 52 -a 1 -x {1.0 3.0 -1 ------- null}
r -t 0.22532 -s 1 -d 2 -p cbr -e 1000 -c 1 -i 46 -a 1 -x {1.0 3.0 45 ------- null}
+ -t 0.22532 -s 2 -d 3 -p cbr -e 1000 -c 1 -i 46 -a 1 -x {1.0 3.0 45 ------- null}
- -t 0.22716 -s 2 -d 3 -p cbr -e 1000 -c 1 -i 14 -a 1 -x {1.0 3.0 14 ------- null}
h -t 0.22716 -s 2 -d 3 -p cbr -e 1000 -c 1 -i 14 -a 1 -x {1.0 3.0 -1 ------- null}
+ -t 0.23 -s 1 -d 2 -p cbr -e 1000 -c 1 -i 53 -a 1 -x {1.0 3.0 52 ------- null}
- -t 0.23 -s 1 -d 2 -p cbr -e 1000 -c 1 -i 53 -a 1 -x {1.0 3.0 52 ------- null}
h -t 0.23 -s 1 -d 2 -p cbr -e 1000 -c 1 -i 53 -a 1 -x {1.0 3.0 -1 ------- null}
+ -t 0.23 -s 1 -d 2 -p cbr -e 1000 -c 1 -i 54 -a 1 -x {1.0 3.0 53 ------- null}
r -t 0.23016 -s 1 -d 2 -p cbr -e 1000 -c 1 -i 47 -a 1 -x {1.0 3.0 46 ------- null}
+ -t 0.23016 -s 2 -d 3 -p cbr -e 1000 -c 1 -i 47 -a 1 -x {1.0 3.0 46 ------- null}
- -t 0.23016 -s 1 -d 2 -p cbr -e 1000 -c 1 -i 54 -a 1 -x {1.0 3.0 53 ------- null}
h -t 0.23016 -s 1 -d 2 -p cbr -e 1000 -c 1 -i 54 -a 1 -x {1.0 3.0 -1 ------- null}
r -t 0.23032 -s 1 -d 2 -p cbr -e 1000 -c 1 -i 48 -a 1 -x {1.0 3.0 47 ------- null}
+ -t 0.23032 -s 2 -d 3 -p cbr -e 1000 -c 1 -i 48 -a 1 -x {1.0 3.0 47 ------- null}
r -t 0.23116 -s 2 -d 3 -p cbr -e 1000 -c 1 -i 11 -a 1 -x {1.0 3.0 11 ------- null}
+ -t 0.235 -s 1 -d 2 -p cbr -e 1000 -c 1 -i 55 -a 1 -x {1.0 3.0 54 ------- null}
- -t 0.235 -s 1 -d 2 -p cbr -e 1000 -c 1 -i 55 -a 1 -x {1.0 3.0 54 ------- null}
h -t 0.235 -s 1 -d 2 -p cbr -e 1000 -c 1 -i 55 -a 1 -x {1.0 3.0 -1 ------- null}
+ -t 0.235 -s 1 -d 2 -p cbr -e 1000 -c 1 -i 56 -a 1 -x {1.0 3.0 55 ------- null}
r -t 0.23516 -s 1 -d 2 -p cbr -e 1000 -c 1 -i 49 -a 1 -x {1.0 3.0 48 ------- null}
+ -t 0.23516 -s 2 -d 3 -p cbr -e 1000 -c 1 -i 49 -a 1 -x {1.0 3.0 48 ------- null}
- -t 0.23516 -s 2 -d 3 -p cbr -e 1000 -c 1 -i 15 -a 1 -x {1.0 3.0 15 ------- null}
h -t 0.23516 -s 2 -d 3 -p cbr -e 1000 -c 1 -i 15 -a 1 -x {1.0 3.0 -1 ------- null}
- -t 0.23516 -s 1 -d 2 -p cbr -e 1000 -c 1 -i 56 -a 1 -x {1.0 3.0 55 ------- null}
h -t 0.23516 -s 1 -d 2 -p cbr -e 1000 -c 1 -i 56 -a 1 -x {1.0 3.0 -1 ------- null}
r -t 0.23532 -s 1 -d 2 -p cbr -e 1000 -c 1 -i 50 -a 1 -x {1.0 3.0 49 ------- null}
+ -t 0.23532 -s 2 -d 3 -p cbr -e 1000 -c 1 -i 50 -a 1 -x {1.0 3.0 49 ------- null}
r -t 0.23916 -s 2 -d 3 -p cbr -e 1000 -c 1 -i 12 -a 1 -x {1.0 3.0 12 ------- null}
+ -t 0.24 -s 1 -d 2 -p cbr -e 1000 -c 1 -i 57 -a 1 -x {1.0 3.0 56 ------- null}
- -t 0.24 -s 1 -d 2 -p cbr -e 1000 -c 1 -i 57 -a 1 -x {1.0 3.0 56 ------- null}
h -t 0.24 -s 1 -d 2 -p cbr -e 1000 -c 1 -i 57 -a 1 -x {1.0 3.0 -1 ------- null}
+ -t 0.24 -s 1 -d 2 -p cbr -e 1000 -c 1 -i 58 -a 1 -x {1.0 3.0 57 ------- null}
r -t 0.24016 -s 1 -d 2 -p cbr -e 1000 -c 1 -i 51 -a 1 -x {1.0 3.0 50 ------- null}
+ -t 0.24016 -s 2 -d 3 -p cbr -e 1000 -c 1 -i 51 -a 1 -x {1.0 3.0 50 ------- null}
- -t 0.24016 -s 1 -d 2 -p cbr -e 1000 -c 1 -i 58 -a 1 -x {1.0 3.0 57 ------- null}
h -t 0.24016 -s 1 -d 2 -p cbr -e 1000 -c 1 -i 58 -a 1 -x {1.0 3.0 -1 ------- null}
r -t 0.24032 -s 1 -d 2 -p cbr -e 1000 -c 1 -i 52 -a 1 -x {1.0 3.0 51 ------- null}
+ -t 0.24032 -s 2 -d 3 -p cbr -e 1000 -c 1 -i 52 -a 1 -x {1.0 3.0 51 ------- null}
- -t 0.24316 -s 2 -d 3 -p cbr -e 1000 -c 1 -i 16 -a 1 -x {1.0 3.0 16 ------- null}
h -t 0.24316 -s 2 -d 3 -p cbr -e 1000 -c 1 -i 16 -a 1 -x {1.0 3.0 -1 ------- null}
+ -t 0.245 -s 1 -d 2 -p cbr -e 1000 -c 1 -i 59 -a 1 -x {1.0 3.0 58 ------- null}
- -t 0.245 -s 1 -d 2 -p cbr -e 1000 -c 1 -i 59 -a 1 -x {1.0 3.0 58 ------- null}
h -t 0.245 -s 1 -d 2 -p cbr -e 1000 -c 1 -i 59 -a 1 -x {1.0 3.0 -1 ------- null}
+ -t 0.245 -s 1 -d 2 -p cbr -e 1000 -c 1 -i 60 -a 1 -x {1.0 3.0 59 ------- null}
r -t 0.24516 -s 1 -d 2 -p cbr -e 1000 -c 1 -i 53 -a 1 -x {1.0 3.0 52 ------- null}
+ -t 0.24516 -s 2 -d 3 -p cbr -e 1000 -c 1 -i 53 -a 1 -x {1.0 3.0 52 ------- null}
- -t 0.24516 -s 1 -d 2 -p cbr -e 1000 -c 1 -i 60 -a 1 -x {1.0 3.0 59 ------- null}
h -t 0.24516 -s 1 -d 2 -p cbr -e 1000 -c 1 -i 60 -a 1 -x {1.0 3.0 -1 ------- null}
r -t 0.24532 -s 1 -d 2 -p cbr -e 1000 -c 1 -i 54 -a 1 -x {1.0 3.0 53 ------- null}
+ -t 0.24532 -s 2 -d 3 -p cbr -e 1000 -c 1 -i 54 -a 1 -x {1.0 3.0 53 ------- null}
r -t 0.24716 -s 2 -d 3 -p cbr -e 1000 -c 1 -i 13 -a 1 -x {1.0 3.0 13 ------- null}
+ -t 0.25 -s 1 -d 2 -p cbr -e 1000 -c 1 -i 61 -a 1 -x {1.0 3.0 60 ------- null}
- -t 0.25 -s 1 -d 2 -p cbr -e 1000 -c 1 -i 61 -a 1 -x {1.0 3.0 60 ------- null}
h -t 0.25 -s 1 -d 2 -p cbr -e 1000 -c 1 -i 61 -a 1 -x {1.0 3.0 -1 ------- null}
+ -t 0.25 -s 1 -d 2 -p cbr -e 1000 -c 1 -i 62 -a 1 -x {1.0 3.0 61 ------- null}
r -t 0.25016 -s 1 -d 2 -p cbr -e 1000 -c 1 -i 55 -a 1 -x {1.0 3.0 54 ------- null}
+ -t 0.25016 -s 2 -d 3 -p cbr -e 1000 -c 1 -i 55 -a 1 -x {1.0 3.0 54 ------- null}
- -t 0.25016 -s 1 -d 2 -p cbr -e 1000 -c 1 -i 62 -a 1 -x {1.0 3.0 61 ------- null}
h -t 0.25016 -s 1 -d 2 -p cbr -e 1000 -c 1 -i 62 -a 1 -x {1.0 3.0 -1 ------- null}
r -t 0.25032 -s 1 -d 2 -p cbr -e 1000 -c 1 -i 56 -a 1 -x {1.0 3.0 55 ------- null}
+ -t 0.25032 -s 2 -d 3 -p cbr -e 1000 -c 1 -i 56 -a 1 -x {1.0 3.0 55 ------- null}
- -t 0.25116 -s 2 -d 3 -p cbr -e 1000 -c 1 -i 17 -a 1 -x {1.0 3.0 17 ------- null}
h -t 0.25116 -s 2 -d 3 -p cbr -e 1000 -c 1 -i 17 -a 1 -x {1.0 3.0 -1 ------- null}
+ -t 0.255 -s 1 -d 2 -p cbr -e 1000 -c 1 -i 63 -a 1 -x {1.0 3.0 62 ------- null}
- -t 0.255 -s 1 -d 2 -p cbr -e 1000 -c 1 -i 63 -a 1 -x {1.0 3.0 62 ------- null}
h -t 0.255 -s 1 -d 2 -p cbr -e 1000 -c 1 -i 63 -a 1 -x {1.0 3.0 -1 ------- null}
+ -t 0.255 -s 1 -d 2 -p cbr -e 1000 -c 1 -i 64 -a 1 -x {1.0 3.0 63 ------- null}
r -t 0.25516 -s 2 -d 3 -p cbr -e 1000 -c 1 -i 14 -a 1 -x {1.0 3.0 14 ------- null}
r -t 0.25516 -s 1 -d 2 -p cbr -e 1000 -c 1 -i 57 -a 1 -x {1.0 3.0 56 ------- null}