+ 0.1 1 2 cbr 1000 ------- 1 1.0 3.0 0 0
- 0.1 1 2 cbr 1000 ------- 1 1.0 3.0 0 0
+ 0.1 1 2 cbr 1000 ------- 1 1.0 3.0 1 1
- 0.10016 1 2 cbr 1000 ------- 1 1.0 3.0 1 1
+ 0.105 1 2 cbr 1000 ------- 1 1.0 3.0 2 2
- 0.105 1 2 cbr 1000 ------- 1 1.0 3.0 2 2
+ 0.105 1 2 cbr 1000 ------- 1 1.0 3.0 3 3
- 0.10516 1 2 cbr 1000 ------- 1 1.0 3.0 3 3
+ 0.11 1 2 cbr 1000 ------- 1 1.0 3.0 4 4
- 0.11 1 2 cbr 1000 ------- 1 1.0 3.0 4 4
+ 0.11 1 2 cbr 1000 ------- 1 1.0 3.0 5 5
- 0.11016 1 2 cbr 1000 ------- 1 1.0 3.0 5 5
+ 0.115 1 2 cbr 1000 ------- 1 1.0 3.0 6 6
- 0.115 1 2 cbr 1000 ------- 1 1.0 3.0 6 6
+ 0.115 1 2 cbr 1000 ------- 1 1.0 3.0 7 7
r 0.11516 1 2 cbr 1000 ------- 1 1.0 3.0 0 0
+ 0.11516 2 3 cbr 1000 ------- 1 1.0 3.0 0 0
- 0.11516 2 3 cbr 1000 ------- 1 1.0 3.0 0 0
- 0.11516 1 2 cbr 1000 ------- 1 1.0 3.0 7 7
r 0.11532 1 2 cbr 1000 ------- 1 1.0 3.0 1 1
+ 0.11532 2 3 cbr 1000 ------- 1 1.0 3.0 1 1
+ 0.12 1 2 cbr 1000 ------- 1 1.0 3.0 8 8
- 0.12 1 2 cbr 1000 ------- 1 1.0 3.0 8 8
+ 0.12 1 2 cbr 1000 ------- 1 1.0 3.0 9 9
r 0.12016 1 2 cbr 1000 ------- 1 1.0 3.0 2 2
+ 0.12016 2 3 cbr 1000 ------- 1 1.0 3.0 2 2
- 0.12016 1 2 cbr 1000 ------- 1 1.0 3.0 9 9
r 0.12032 1 2 cbr 1000 ------- 1 1.0 3.0 3 3
+ 0.12032 2 3 cbr 1000 ------- 1 1.0 3.0 3 3
- 0.12316 2 3 cbr 1000 ------- 1 1.0 3.0 1 1
+ 0.125 1 2 cbr 1000 ------- 1 1.0 3.0 10 10
- 0.125 1 2 cbr 1000 ------- 1 1.0 3.0 10 10
+ 0.125 1 2 cbr 1000 ------- 1 1.0 3.0 11 11
r 0.12516 1 2 cbr 1000 ------- 1 1.0 3.0 4 4
+ 0.12516 2 3 cbr 1000 ------- 1 1.0 3.0 4 4
- 0.12516 1 2 cbr 1000 ------- 1 1.0 3.0 11 11
r 0.12532 1 2 cbr 1000 ------- 1 1.0 3.0 5 5
+ 0.12532 2 3 cbr 1000 ------- 1 1.0 3.0 5 5
+ 0.13 1 2 cbr 1000 ------- 1 1.0 3.0 12 12
- 0.13 1 2 cbr 1000 ------- 1 1.0 3.0 12 12
+ 0.13 1 2 cbr 1000 ------- 1 1.0 3.0 13 13
r 0.13016 1 2 cbr 1000 ------- 1 1.0 3.0 6 6
+ 0.13016 2 3 cbr 1000 ------- 1 1.0 3.0 6 6
- 0.13016 1 2 cbr 1000 ------- 1 1.0 3.0 13 13
r 0.13032 1 2 cbr 1000 ------- 1 1.0 3.0 7 7
+ 0.13032 2 3 cbr 1000 ------- 1 1.0 3.0 7 7
- 0.13116 2 3 cbr 1000 ------- 1 1.0 3.0 2 2
+ 0.135 1 2 cbr 1000 ------- 1 1.0 3.0 14 14
- 0.135 1 2 cbr 1000 ------- 1 1.0 3.0 14 14
+ 0.135 1 2 cbr 1000 ------- 1 1.0 3.0 15 15
r 0.13516 1 2 cbr 1000 ------- 1 1.0 3.0 8 8
+ 0.13516 2 3 cbr 1000 ------- 1 1.0 3.0 8 8
- 0.13516 1 2 cbr 1000 ------- 1 1.0 3.0 15 15
r 0.13532 1 2 cbr 1000 ------- 1 1.0 3.0 9 9
+ 0.13532 2 3 cbr 1000 ------- 1 1.0 3.0 9 9
- 0.13916 2 3 cbr 1000 ------- 1 1.0 3.0 3 3
+ 0.14 1 2 cbr 1000 ------- 1 1.0 3.0 16 16
- 0.14 1 2 cbr 1000 ------- 1 1.0 3.0 16 16
+ 0.14 1 2 cbr 1000 ------- 1 1.0 3.0 17 17
r 0.14016 1 2 cbr 1000 ------- 1 1.0 3.0 10 10
+ 0.14016 2 3 cbr 1000 ------- 1 1.0 3.0 10 10
- 0.14016 1 2 cbr 1000 ------- 1 1.0 3.0 17 17
r 0.14032 1 2 cbr 1000 ------- 1 1.0 3.0 11 11
+ 0.14032 2 3 cbr 1000 ------- 1 1.0 3.0 11 11
r 0.14316 2 3 cbr 1000 ------- 1 1.0 3.0 0 0
+ 0.145 1 2 cbr 1000 ------- 1 1.0 3.0 18 18
- 0.145 1 2 cbr 1000 ------- 1 1.0 3.0 18 18
+ 0.145 1 2 cbr 1000 ------- 1 1.0 3.0 19 19
r 0.14516 1 2 cbr 1000 ------- 1 1.0 3.0 12 12
+ 0.14516 2 3 cbr 1000 ------- 1 1.0 3.0 12 12
- 0.14516 1 2 cbr 1000 ------- 1 1.0 3.0 19 19
r 0.14532 1 2 cbr 1000 ------- 1 1.0 3.0 13 13
+ 0.14532 2 3 cbr 1000 ------- 1 1.0 3.0 13 13
- 0.14716 2 3 cbr 1000 ------- 1 1.0 3.0 4 4
+ 0.15 1 2 cbr 1000 ------- 1 1.0 3.0 20 20
- 0.15 1 2 cbr 1000 ------- 1 1.0 3.0 20 20
+ 0.15 1 2 cbr 1000 ------- 1 1.0 3.0 21 21
r 0.15016 1 2 cbr 1000 ------- 1 1.0 3.0 14 14
+ 0.15016 2 3 cbr 1000 ------- 1 1.0 3.0 14 14
- 0.15016 1 2 cbr 1000 ------- 1 1.0 3.0 21 21
r 0.15032 1 2 cbr 1000 ------- 1 1.0 3.0 15 15
+ 0.15032 2 3 cbr 1000 ------- 1 1.0 3.0 15 15
r 0.15116 2 3 cbr 1000 ------- 1 1.0 3.0 1 1
+ 0.155 1 2 cbr 1000 ------- 1 1.0 3.0 22 22
- 0.155 1 2 cbr 1000 ------- 1 1.0 3.0 22 22
+ 0.155 1 2 cbr 1000 ------- 1 1.0 3.0 23 23
r 0.15516 1 2 cbr 1000 ------- 1 1.0 3.0 16 16
+ 0.15516 2 3 cbr 1000 ------- 1 1.0 3.0 16 16
- 0.15516 2 3 cbr 1000 ------- 1 1.0 3.0 5 5
- 0.15516 1 2 cbr 1000 ------- 1 1.0 3.0 23 23
r 0.15532 1 2 cbr 1000 ------- 1 1.0 3.0 17 17
+ 0.15532 2 3 cbr 1000 ------- 1 1.0 3.0 17 17
r 0.15916 2 3 cbr 1000 ------- 1 1.0 3.0 2 2
+ 0.16 1 2 cbr 1000 ------- 1 1.0 3.0 24 24
- 0.16 1 2 cbr 1000 ------- 1 1.0 3.0 24 24
+ 0.16 1 2 cbr 1000 ------- 1 1.0 3.0 25 25
r 0.16016 1 2 cbr 1000 ------- 1 1.0 3.0 18 18
+ 0.16016 2 3 cbr 1000 ------- 1 1.0 3.0 18 18
- 0.16016 1 2 cbr 1000 ------- 1 1.0 3.0 25 25
r 0.16032 1 2 cbr 1000 ------- 1 1.0 3.0 19 19
+ 0.16032 2 3 cbr 1000 ------- 1 1.0 3.0 19 19
- 0.16316 2 3 cbr 1000 ------- 1 1.0 3.0 6 6
+ 0.165 1 2 cbr 1000 ------- 1 1.0 3.0 26 26
- 0.165 1 2 cbr 1000 ------- 1 1.0 3.0 26 26
+ 0.165 1 2 cbr 1000 ------- 1 1.0 3.0 27 27
r 0.16516 1 2 cbr 1000 ------- 1 1.0 3.0 20 20
+ 0.16516 2 3 cbr 1000 ------- 1 1.0 3.0 20 20
- 0.16516 1 2 cbr 1000 ------- 1 1.0 3.0 27 27
r 0.16532 1 2 cbr 1000 ------- 1 1.0 3.0 21 21
+ 0.16532 2 3 cbr 1000 ------- 1 1.0 3.0 21 21
r 0.16716 2 3 cbr 1000 ------- 1 1.0 3.0 3 3
+ 0.17 1 2 cbr 1000 ------- 1 1.0 3.0 28 28
- 0.17 1 2 cbr 1000 ------- 1 1.0 3.0 28 28
+ 0.17 1 2 cbr 1000 ------- 1 1.0 3.0 29 29
r 0.17016 1 2 cbr 1000 ------- 1 1.0 3.0 22 22
+ 0.17016 2 3 cbr 1000 ------- 1 1.0 3.0 22 22
- 0.17016 1 2 cbr 1000 ------- 1 1.0 3.0 29 29
r 0.17032 1 2 cbr 1000 ------- 1 1.0 3.0 23 23
+ 0.17032 2 3 cbr 1000 ------- 1 1.0 3.0 23 23
- 0.17116 2 3 cbr 1000 ------- 1 1.0 3.0 7 7
+ 0.175 1 2 cbr 1000 ------- 1 1.0 3.0 30 30
- 0.175 1 2 cbr 1000 ------- 1 1.0 3.0 30 30
+ 0.175 1 2 cbr 1000 ------- 1 1.0 3.0 31 31
r 0.17516 2 3 cbr 1000 ------- 1 1.0 3.0 4 4
r 0.17516 1 2 cbr 1000 ------- 1 1.0 3.0 24 24
+ 0.17516 2 3 cbr 1000 ------- 1 1.0 3.0 24 24
- 0.17516 1 2 cbr 1000 ------- 1 1.0 3.0 31 31
r 0.17532 1 2 cbr 1000 ------- 1 1.0 3.0 25 25
+ 0.17532 2 3 cbr 1000 ------- 1 1.0 3.0 25 25
- 0.17916 2 3 cbr 1000 ------- 1 1.0 3.0 8 8
+ 0.18 1 2 cbr 1000 ------- 1 1.0 3.0 32 32
- 0.18 1 2 cbr 1000 ------- 1 1.0 3.0 32 32
+ 0.18 1 2 cbr 1000 ------- 1 1.0 3.0 33 33
r 0.18016 1 2 cbr 1000 ------- 1 1.0 3.0 26 26
+ 0.18016 2 3 cbr 1000 ------- 1 1.0 3.0 26 26
- 0.18016 1 2 cbr 1000 ------- 1 1.0 3.0 33 33
r 0.18032 1 2 cbr 1000 ------- 1 1.0 3.0 27 27
+ 0.18032 2 3 cbr 1000 ------- 1 1.0 3.0 27 27
r 0.18316 2 3 cbr 1000 ------- 1 1.0 3.0 5 5
+ 0.185 1 2 cbr 1000 ------- 1 1.0 3.0 34 34
- 0.185 1 2 cbr 1000 ------- 1 1.0 3.0 34 34
+ 0.185 1 2 cbr 1000 ------- 1 1.0 3.0 35 35
r 0.18516 1 2 cbr 1000 ------- 1 1.0 3.0 28 28
+ 0.18516 2 3 cbr 1000 ------- 1 1.0 3.0 28 28
- 0.18516 1 2 cbr 1000 ------- 1 1.0 3.0 35 35
r 0.18532 1 2 cbr 1000 ------- 1 1.0 3.0 29 29
+ 0.18532 2 3 cbr 1000 ------- 1 1.0 3.0 29 29
- 0.18716 2 3 cbr 1000 ------- 1 1.0 3.0 9 9
+ 0.19 1 2 cbr 1000 ------- 1 1.0 3.0 36 36
- 0.19 1 2 cbr 1000 ------- 1 1.0 3.0 36 36
+ 0.19 1 2 cbr 1000 ------- 1 1.0 3.0 37 37
r 0.19016 1 2 cbr 1000 ------- 1 1.0 3.0 30 30
+ 0.19016 2 3 cbr 1000 ------- 1 1.0 3.0 30 30
- 0.19016 1 2 cbr 1000 ------- 1 1.0 3.0 37 37
r 0.19032 1 2 cbr 1000 ------- 1 1.0 3.0 31 31
+ 0.19032 2 3 cbr 1000 ------- 1 1.0 3.0 31 31
r 0.19116 2 3 cbr 1000 ------- 1 1.0 3.0 6 6
+ 0.195 1 2 cbr 1000 ------- 1 1.0 3.0 38 38
- 0.195 1 2 cbr 1000 ------- 1 1.0 3.0 38 38
+ 0.195 1 2 cbr 1000 ------- 1 1.0 3.0 39 39
r 0.19516 1 2 cbr 1000 ------- 1 1.0 3.0 32 32
+ 0.19516 2 3 cbr 1000 ------- 1 1.0 3.0 32 32
- 0.19516 2 3 cbr 1000 ------- 1 1.0 3.0 10 10
- 0.19516 1 2 cbr 1000 ------- 1 1.0 3.0 39 39
r 0.19532 1 2 cbr 1000 ------- 1 1.0 3.0 33 33
+ 0.19532 2 3 cbr 1000 ------- 1 1.0 3.0 33 33
r 0.19916 2 3 cbr 1000 ------- 1 1.0 3.0 7 7
+ 0.2 0 2 tcp 40 ------- 2 0.0 3.1 0 40
- 0.2 0 2 tcp 40 ------- 2 0.0 3.1 0 40
+ 0.2 1 2 cbr 1000 ------- 1 1.0 3.0 40 41
- 0.2 1 2 cbr 1000 ------- 1 1.0 3.0 40 41
+ 0.2 1 2 cbr 1000 ------- 1 1.0 3.0 41 42
r 0.20016 1 2 cbr 1000 ------- 1 1.0 3.0 34 34
+ 0.20016 2 3 cbr 1000 ------- 1 1.0 3.0 34 34
- 0.20016 1 2 cbr 1000 ------- 1 1.0 3.0 41 42
r 0.20032 1 2 cbr 1000 ------- 1 1.0 3.0 35 35
+ 0.20032 2 3 cbr 1000 ------- 1 1.0 3.0 35 35
- 0.20316 2 3 cbr 1000 ------- 1 1.0 3.0 11 11
+ 0.205 1 2 cbr 1000 ------- 1 1.0 3.0 42 43
- 0.205 1 2 cbr 1000 ------- 1 1.0 3.0 42 43
+ 0.205 1 2 cbr 1000 ------- 1 1.0 3.0 43 44
r 0.20516 1 2 cbr 1000 ------- 1 1.0 3.0 36 36
+ 0.20516 2 3 cbr 1000 ------- 1 1.0 3.0 36 36
- 0.20516 1 2 cbr 1000 ------- 1 1.0 3.0 43 44
r 0.20532 1 2 cbr 1000 ------- 1 1.0 3.0 37 37
+ 0.20532 2 3 cbr 1000 ------- 1 1.0 3.0 37 37
r 0.20716 2 3 cbr 1000 ------- 1 1.0 3.0 8 8
+ 0.21 1 2 cbr 1000 ------- 1 1.0 3.0 44 45
- 0.21 1 2 cbr 1000 ------- 1 1.0 3.0 44 45
+ 0.21 1 2 cbr 1000 ------- 1 1.0 3.0 45 46
r 0.210032 0 2 tcp 40 ------- 2 0.0 3.1 0 40
+ 0.210032 2 3 tcp 40 ------- 2 0.0 3.1 0 40
r 0.21016 1 2 cbr 1000 ------- 1 1.0 3.0 38 38
+ 0.21016 2 3 cbr 1000 ------- 1 1.0 3.0 38 38
- 0.21016 1 2 cbr 1000 ------- 1 1.0 3.0 45 46
r 0.21032 1 2 cbr 1000 ------- 1 1.0 3.0 39 39
+ 0.21032 2 3 cbr 1000 ------- 1 1.0 3.0 39 39
- 0.21116 2 3 cbr 1000 ------- 1 1.0 3.0 12 12
+ 0.215 1 2 cbr 1000 ------- 1 1.0 3.0 46 47
- 0.215 1 2 cbr 1000 ------- 1 1.0 3.0 46 47
+ 0.215 1 2 cbr 1000 ------- 1 1.0 3.0 47 48
r 0.21516 2 3 cbr 1000 ------- 1 1.0 3.0 9 9
r 0.21516 1 2 cbr 1000 ------- 1 1.0 3.0 40 41
+ 0.21516 2 3 cbr 1000 ------- 1 1.0 3.0 40 41
- 0.21516 1 2 cbr 1000 ------- 1 1.0 3.0 47 48
r 0.21532 1 2 cbr 1000 ------- 1 1.0 3.0 41 42
+ 0.21532 2 3 cbr 1000 ------- 1 1.0 3.0 41 42
- 0.21916 2 3 cbr 1000 ------- 1 1.0 3.0 13 13
+ 0.22 1 2 cbr 1000 ------- 1 1.0 3.0 48 49
- 0.22 1 2 cbr 1000 ------- 1 1.0 3.0 48 49
+ 0.22 1 2 cbr 1000 ------- 1 1.0 3.0 49 50
r 0.22016 1 2 cbr 1000 ------- 1 1.0 3.0 42 43
+ 0.22016 2 3 cbr 1000 ------- 1 1.0 3.0 42 43
- 0.22016 1 2 cbr 1000 ------- 1 1.0 3.0 49 50
r 0.22032 1 2 cbr 1000 ------- 1 1.0 3.0 43 44
+ 0.22032 2 3 cbr 1000 ------- 1 1.0 3.0 43 44
r 0.22316 2 3 cbr 1000 ------- 1 1.0 3.0 10 10
+ 0.225 1 2 cbr 1000 ------- 1 1.0 3.0 50 51
- 0.225 1 2 cbr 1000 ------- 1 1.0 3.0 50 51
+ 0.225 1 2 cbr 1000 ------- 1 1.0 3.0 51 52
r 0.22516 1 2 cbr 1000 ------- 1 1.0 3.0 44 45
+ 0.22516 2 3 cbr 1000 ------- 1 1.0 3.0 44 45
- 0.22516 1 2 cbr 1000 ------- 1 1.0 3.0 51 52
r 0.22532 1 2 cbr 1000 ------- 1 1.0 3.0 45 46
+ 0.22532 2 3 cbr 1000 ------- 1 1.0 3.0 45 46
- 0.22716 2 3 cbr 1000 ------- 1 1.0 3.0 14 14
+ 0.23 1 2 cbr 1000 ------- 1 1.0 3.0 52 53
- 0.23 1 2 cbr 1000 ------- 1 1.0 3.0 52 53
+ 0.23 1 2 cbr 1000 ------- 1 1.0 3.0 53 54
r 0.23016 1 2 cbr 1000 ------- 1 1.0 3.0 46 47
+ 0.23016 2 3 cbr 1000 ------- 1 1.0 3.0 46 47
- 0.23016 1 2 cbr 1000 ------- 1 1.0 3.0 53 54
r 0.23032 1 2 cbr 1000 ------- 1 1.0 3.0 47 48
+ 0.23032 2 3 cbr 1000 ------- 1 1.0 3.0 47 48
r 0.23116 2 3 cbr 1000 ------- 1 1.0 3.0 11 11
+ 0.235 1 2 cbr 1000 ------- 1 1.0 3.0 54 55
- 0.235 1 2 cbr 1000 ------- 1 1.0 3.0 54 55
+ 0.235 1 2 cbr 1000 ------- 1 1.0 3.0 55 56
r 0.23516 1 2 cbr 1000 ------- 1 1.0 3.0 48 49
+ 0.23516 2 3 cbr 1000 ------- 1 1.0 3.0 48 49
- 0.23516 2 3 cbr 1000 ------- 1 1.0 3.0 15 15
- 0.23516 1 2 cbr 1000 ------- 1 1.0 3.0 55 56
r 0.23532 1 2 cbr 1000 ------- 1 1.0 3.0 49 50
+ 0.23532 2 3 cbr 1000 ------- 1 1.0 3.0 49 50
r 0.23916 2 3 cbr 1000 ------- 1 1.0 3.0 12 12
+ 0.24 1 2 cbr 1000 ------- 1 1.0 3.0 56 57
- 0.24 1 2 cbr 1000 ------- 1 1.0 3.0 56 57
+ 0.24 1 2 cbr 1000 ------- 1 1.0 3.0 57 58
r 0.24016 1 2 cbr 1000 ------- 1 1.0 3.0 50 51
+ 0.24016 2 3 cbr 1000 ------- 1 1.0 3.0 50 51
- 0.24016 1 2 cbr 1000 ------- 1 1.0 3.0 57 58
r 0.24032 1 2 cbr 1000 ------- 1 1.0 3.0 51 52
+ 0.24032 2 3 cbr 1000 ------- 1 1.0 3.0 51 52
- 0.24316 2 3 cbr 1000 ------- 1 1.0 3.0 16 16
+ 0.245 1 2 cbr 1000 ------- 1 1.0 3.0 58 59
- 0.245 1 2 cbr 1000 ------- 1 1.0 3.0 58 59
+ 0.245 1 2 cbr 1000 ------- 1 1.0 3.0 59 60
r 0.24516 1 2 cbr 1000 ------- 1 1.0 3.0 52 53
+ 0.24516 2 3 cbr 1000 ------- 1 1.0 3.0 52 53
- 0.24516 1 2 cbr 1000 ------- 1 1.0 3.0 59 60
r 0.24532 1 2 cbr 1000 ------- 1 1.0 3.0 53 54
+ 0.24532 2 3 cbr 1000 ------- 1 1.0 3.0 53 54
r 0.24716 2 3 cbr 1000 ------- 1 1.0 3.0 13 13
+ 0.25 1 2 cbr 1000 ------- 1 1.0 3.0 60 61
- 0.25 1 2 cbr 1000 ------- 1 1.0 3.0 60 61
+ 0.25 1 2 cbr 1000 ------- 1 1.0 3.0 61 62
r 0.25016 1 2 cbr 1000 ------- 1 1.0 3.0 54 55
+ 0.25016 2 3 cbr 1000 ------- 1 1.0 3.0 54 55
- 0.25016 1 2 cbr 1000 ------- 1 1.0 3.0 61 62
r 0.25032 1 2 cbr 1000 ------- 1 1.0 3.0 55 56
+ 0.25032 2 3 cbr 1000 ------- 1 1.0 3.0 55 56
- 0.25116 2 3 cbr 1000 ------- 1 1.0 3.0 17 17
+ 0.255 1 2 cbr 1000 ------- 1 1.0 3.0 62 63
- 0.255 1 2 cbr 1000 ------- 1 1.0 3.0 62 63
+ 0.255 1 2 cbr 1000 ------- 1 1.0 3.0 63 64
r 0.25516 2 3 cbr 1000 ------- 1 1.0 3.0 14 14
r 0.25516 1 2 cbr 1000 ------- 1 1.0 3.0 56 57
+ 0.25516 2 3 cbr 1000 ------- 1 1.0 3.0 56 57
- 0.25516 1 2 cbr 1000 ------- 1 1.0 3.0 63 64
r 0.25532 1 2 cbr 1000 ------- 1 1.0 3.0 57 58
+ 0.25532 2 3 cbr 1000 ------- 1 1.0 3.0 57 58
- 0.25916 2 3 cbr 1000 ------- 1 1.0 3.0 18 18
+ 0.26 1 2 cbr 1000 ------- 1 1.0 3.0 64 65
- 0.26 1 2 cbr 1000 ------- 1 1.0 3.0 64 65
+ 0.26 1 2 cbr 1000 ------- 1 1.0 3.0 65 66
r 0.26016 1 2 cbr 1000 ------- 1 1.0 3.0 58 59
+ 0.26016 2 3 cbr 1000 ------- 1 1.0 3.0 58 59
- 0.26016 1 2 cbr 1000 ------- 1 1.0 3.0 65 66
r 0.26032 1 2 cbr 1000 ------- 1 1.0 3.0 59 60
+ 0.26032 2 3 cbr 1000 ------- 1 1.0 3.0 59 60
r 0.26316 2 3 cbr 1000 ------- 1 1.0 3.0 15 15
+ 0.265 1 2 cbr 1000 ------- 1 1.0 3.0 66 67
- 0.265 1 2 cbr 1000 ------- 1 1.0 3.0 66 67
+ 0.265 1 2 cbr 1000 ------- 1 1.0 3.0 67 68
r 0.26516 1 2 cbr 1000 ------- 1 1.0 3.0 60 61
+ 0.26516 2 3 cbr 1000 ------- 1 1.0 3.0 60 61
- 0.26516 1 2 cbr 1000 ------- 1 1.0 3.0 67 68
r 0.26532 1 2 cbr 1000 ------- 1 1.0 3.0 61 62
+ 0.26532 2 3 cbr 1000 ------- 1 1.0 3.0 61 62
- 0.26716 2 3 cbr 1000 ------- 1 1.0 3.0 19 19
+ 0.27 1 2 cbr 1000 ------- 1 1.0 3.0 68 69
- 0.27 1 2 cbr 1000 ------- 1 1.0 3.0 68 69
+ 0.27 1 2 cbr 1000 ------- 1 1.0 3.0 69 70
r 0.27016 1 2 cbr 1000 ------- 1 1.0 3.0 62 63
+ 0.27016 2 3 cbr 1000 ------- 1 1.0 3.0 62 63
- 0.27016 1 2 cbr 1000 ------- 1 1.0 3.0 69 70
r 0.27032 1 2 cbr 1000 ------- 1 1.0 3.0 63 64
+ 0.27032 2 3 cbr 1000 ------- 1 1.0 3.0 63 64
r 0.27116 2 3 cbr 1000 ------- 1 1.0 3.0 16 16
+ 0.275 1 2 cbr 1000 ------- 1 1.0 3.0 70 71
- 0.275 1 2 cbr 1000 ------- 1 1.0 3.0 70 71
+ 0.275 1 2 cbr 1000 ------- 1 1.0 3.0 71 72
r 0.27516 1 2 cbr 1000 ------- 1 1.0 3.0 64 65
+ 0.27516 2 3 cbr 1000 ------- 1 1.0 3.0 64 65
- 0.27516 2 3 cbr 1000 ------- 1 1.0 3.0 20 20
- 0.27516 1 2 cbr 1000 ------- 1 1.0 3.0 71 72
r 0.27532 1 2 cbr 1000 ------- 1 1.0 3.0 65 66
+ 0.27532 2 3 cbr 1000 ------- 1 1.0 3.0 65 66
r 0.27916 2 3 cbr 1000 ------- 1 1.0 3.0 17 17
+ 0.28 1 2 cbr 1000 ------- 1 1.0 3.0 72 73
- 0.28 1 2 cbr 1000 ------- 1 1.0 3.0 72 73
+ 0.28 1 2 cbr 1000 ------- 1 1.0 3.0 73 74
r 0.28016 1 2 cbr 1000 ------- 1 1.0 3.0 66 67
+ 0.28016 2 3 cbr 1000 ------- 1 1.0 3.0 66 67
- 0.28016 1 2 cbr 1000 ------- 1 1.0 3.0 73 74
r 0.28032 1 2 cbr 1000 ------- 1 1.0 3.0 67 68
+ 0.28032 2 3 cbr 1000 ------- 1 1.0 3.0 67 68
- 0.28316 2 3 cbr 1000 ------- 1 1.0 3.0 21 21
+ 0.285 1 2 cbr 1000 ------- 1 1.0 3.0 74 75
- 0.285 1 2 cbr 1000 ------- 1 1.0 3.0 74 75
+ 0.285 1 2 cbr 1000 ------- 1 1.0 3.0 75 76
r 0.28516 1 2 cbr 1000 ------- 1 1.0 3.0 68 69
+ 0.28516 2 3 cbr 1000 ------- 1 1.0 3.0 68 69
- 0.28516 1 2 cbr 1000 ------- 1 1.0 3.0 75 76
r 0.28532 1 2 cbr 1000 ------- 1 1.0 3.0 69 70
+ 0.28532 2 3 cbr 1000 ------- 1 1.0 3.0 69 70
r 0.28716 2 3 cbr 1000 ------- 1 1.0 3.0 18 18
+ 0.29 1 2 cbr 1000 ------- 1 1.0 3.0 76 77
- 0.29 1 2 cbr 1000 ------- 1 1.0 3.0 76 77
+ 0.29 1 2 cbr 1000 ------- 1 1.0 3.0 77 78
r 0.29016 1 2 cbr 1000 ------- 1 1.0 3.0 70 71
+ 0.29016 2 3 cbr 1000 ------- 1 1.0 3.0 70 71
d 0.29016 2 3 cbr 1000 ------- 1 1.0 3.0 70 71
- 0.29016 1 2 cbr 1000 ------- 1 1.0 3.0 77 78
r 0.29032 1 2 cbr 1000 ------- 1 1.0 3.0 71 72
+ 0.29032 2 3 cbr 1000 ------- 1 1.0 3.0 71 72
d 0.29032 2 3 cbr 1000 ------- 1 1.0 3.0 71 72
- 0.29116 2 3 cbr 1000 ------- 1 1.0 3.0 22 22
+ 0.295 1 2 cbr 1000 ------- 1 1.0 3.0 78 79
- 0.295 1 2 cbr 1000 ------- 1 1.0 3.0 78 79
+ 0.295 1 2 cbr 1000 ------- 1 1.0 3.0 79 80
r 0.29516 2 3 cbr 1000 ------- 1 1.0 3.0 19 19
r 0.29516 1 2 cbr 1000 ------- 1 1.0 3.0 72 73
+ 0.29516 2 3 cbr 1000 ------- 1 1.0 3.0 72 73
- 0.29516 1 2 cbr 1000 ------- 1 1.0 3.0 79 80
r 0.29532 1 2 cbr 1000 ------- 1 1.0 3.0 73 74
+ 0.29532 2 3 cbr 1000 ------- 1 1.0 3.0 73 74
d 0.29532 2 3 cbr 1000 ------- 1 1.0 3.0 73 74
- 0.29916 2 3 cbr 1000 ------- 1 1.0 3.0 23 23
+ 0.3 1 2 cbr 1000 ------- 1 1.0 3.0 80 81
- 0.3 1 2 cbr 1000 ------- 1 1.0 3.0 80 81
+ 0.3 1 2 cbr 1000 ------- 1 1.0 3.0 81 82
r 0.30016 1 2 cbr 1000 ------- 1 1.0 3.0 74 75
+ 0.30016 2 3 cbr 1000 ------- 1 1.0 3.0 74 75
- 0.30016 1 2 cbr 1000 ------- 1 1.0 3.0 81 82
r 0.30032 1 2 cbr 1000 ------- 1 1.0 3.0 75 76
+ 0.30032 2 3 cbr 1000 ------- 1 1.0 3.0 75 76
d 0.30032 2 3 cbr 1000 ------- 1 1.0 3.0 75 76
r 0.30316 2 3 cbr 1000 ------- 1 1.0 3.0 20 20
+ 0.305 1 2 cbr 1000 ------- 1 1.0 3.0 82 83
- 0.305 1 2 cbr 1000 ------- 1 1.0 3.0 82 83
+ 0.305 1 2 cbr 1000 ------- 1 1.0 3.0 83 84
r 0.30516 1 2 cbr 1000 ------- 1 1.0 3.0 76 77
+ 0.30516 2 3 cbr 1000 ------- 1 1.0 3.0 76 77
d 0.30516 2 3 cbr 1000 ------- 1 1.0 3.0 76 77
- 0.30516 1 2 cbr 1000 ------- 1 1.0 3.0 83 84
r 0.30532 1 2 cbr 1000 ------- 1 1.0 3.0 77 78
+ 0.30532 2 3 cbr 1000 ------- 1 1.0 3.0 77 78
d 0.30532 2 3 cbr 1000 ------- 1 1.0 3.0 77 78
- 0.30716 2 3 cbr 1000 ------- 1 1.0 3.0 24 24
+ 0.31 1 2 cbr 1000 ------- 1 1.0 3.0 84 85
- 0.31 1 2 cbr 1000 ------- 1 1.0 3.0 84 85
+ 0.31 1 2 cbr 1000 ------- 1 1.0 3.0 85 86
r 0.31016 1 2 cbr 1000 ------- 1 1.0 3.0 78 79
+ 0.31016 2 3 cbr 1000 ------- 1 1.0 3.0 78 79
- 0.31016 1 2 cbr 1000 ------- 1 1.0 3.0 85 86
r 0.31032 1 2 cbr 1000 ------- 1 1.0 3.0 79 80
+ 0.31032 2 3 cbr 1000 ------- 1 1.0 3.0 79 80
d 0.31032 2 3 cbr 1000 ------- 1 1.0 3.0 79 80
r 0.31116 2 3 cbr 1000 ------- 1 1.0 3.0 21 21
+ 0.315 1 2 cbr 1000 ------- 1 1.0 3.0 86 87
- 0.315 1 2 cbr 1000 ------- 1 1.0 3.0 86 87
+ 0.315 1 2 cbr 1000 ------- 1 1.0 3.0 87 88
r 0.31516 1 2 cbr 1000 ------- 1 1.0 3.0 80 81
+ 0.31516 2 3 cbr 1000 ------- 1 1.0 3.0 80 81
d 0.31516 2 3 cbr 1000 ------- 1 1.0 3.0 80 81
- 0.31516 2 3 cbr 1000 ------- 1 1.0 3.0 25 25
- 0.31516 1 2 cbr 1000 ------- 1 1.0 3.0 87 88
r 0.31532 1 2 cbr 1000 ------- 1 1.0 3.0 81 82
+ 0.31532 2 3 cbr 1000 ------- 1 1.0 3.0 81 82
r 0.31916 2 3 cbr 1000 ------- 1 1.0 3.0 22 22
+ 0.32 1 2 cbr 1000 ------- 1 1.0 3.0 88 89
- 0.32 1 2 cbr 1000 ------- 1 1.0 3.0 88 89
+ 0.32 1 2 cbr 1000 ------- 1 1.0 3.0 89 90
r 0.32016 1 2 cbr 1000 ------- 1 1.0 3.0 82 83
+ 0.32016 2 3 cbr 1000 ------- 1 1.0 3.0 82 83
d 0.32016 2 3 cbr 1000 ------- 1 1.0 3.0 82 83
- 0.32016 1 2 cbr 1000 ------- 1 1.0 3.0 89 90
r 0.32032 1 2 cbr 1000 ------- 1 1.0 3.0 83 84
+ 0.32032 2 3 cbr 1000 ------- 1 1.0 3.0 83 84
d 0.32032 2 3 cbr 1000 ------- 1 1.0 3.0 83 84
- 0.32316 2 3 cbr 1000 ------- 1 1.0 3.0 26 26
+ 0.325 1 2 cbr 1000 ------- 1 1.0 3.0 90 91
- 0.325 1 2 cbr 1000 ------- 1 1.0 3.0 90 91
+ 0.325 1 2 cbr 1000 ------- 1 1.0 3.0 91 92
r 0.32516 1 2 cbr 1000 ------- 1 1.0 3.0 84 85
+ 0.32516 2 3 cbr 1000 ------- 1 1.0 3.0 84 85
- 0.32516 1 2 cbr 1000 ------- 1 1.0 3.0 91 92
r 0.32532 1 2 cbr 1000 ------- 1 1.0 3.0 85 86
+ 0.32532 2 3 cbr 1000 ------- 1 1.0 3.0 85 86
d 0.32532 2 3 cbr 1000 ------- 1 1.0 3.0 85 86
r 0.32716 2 3 cbr 1000 ------- 1 1.0 3.0 23 23
+ 0.33 1 2 cbr 1000 ------- 1 1.0 3.0 92 93
- 0.33 1 2 cbr 1000 ------- 1 1.0 3.0 92 93
+ 0.33 1 2 cbr 1000 ------- 1 1.0 3.0 93 94
r 0.33016 1 2 cbr 1000 ------- 1 1.0 3.0 86 87
+ 0.33016 2 3 cbr 1000 ------- 1 1.0 3.0 86 87
d 0.33016 2 3 cbr 1000 ------- 1 1.0 3.0 86 87
- 0.33016 1 2 cbr 1000 ------- 1 1.0 3.0 93 94
r 0.33032 1 2 cbr 1000 ------- 1 1.0 3.0 87 88
+ 0.33032 2 3 cbr 1000 ------- 1 1.0 3.0 87 88
d 0.33032 2 3 cbr 1000 ------- 1 1.0 3.0 87 88
- 0.33116 2 3 cbr 1000 ------- 1 1.0 3.0 27 27
+ 0.335 1 2 cbr 1000 ------- 1 1.0 3.0 94 95
- 0.335 1 2 cbr 1000 ------- 1 1.0 3.0 94 95
+ 0.335 1 2 cbr 1000 ------- 1 1.0 3.0 95 96
r 0.33516 2 3 cbr 1000 ------- 1 1.0 3.0 24 24
r 0.33516 1 2 cbr 1000 ------- 1 1.0 3.0 88 89
+ 0.33516 2 3 cbr 1000 ------- 1 1.0 3.0 88 89
- 0.33516 1 2 cbr 1000 ------- 1 1.0 3.0 95 96
r 0.33532 1 2 cbr 1000 ------- 1 1.0 3.0 89 90
+ 0.33532 2 3 cbr 1000 ------- 1 1.0 3.0 89 90
d 0.33532 2 3 cbr 1000 ------- 1 1.0 3.0 89 90
- 0.33916 2 3 cbr 1000 ------- 1 1.0 3.0 28 28
+ 0.34 1 2 cbr 1000 ------- 1 1.0 3.0 96 97
- 0.34 1 2 cbr 1000 ------- 1 1.0 3.0 96 97
+ 0.34 1 2 cbr 1000 ------- 1 1.0 3.0 97 98
r 0.34016 1 2 cbr 1000 ------- 1 1.0 3.0 90 91
+ 0.34016 2 3 cbr 1000 ------- 1 1.0 3.0 90 91
- 0.34016 1 2 cbr 1000 ------- 1 1.0 3.0 97 98
r 0.34032 1 2 cbr 1000 ------- 1 1.0 3.0 91 92
+ 0.34032 2 3 cbr 1000 ------- 1 1.0 3.0 91 92
d 0.34032 2 3 cbr 1000 ------- 1 1.0 3.0 91 92
r 0.34316 2 3 cbr 1000 ------- 1 1.0 3.0 25 25
+ 0.345 1 2 cbr 1000 ------- 1 1.0 3.0 98 99
- 0.345 1 2 cbr 1000 ------- 1 1.0 3.0 98 99
+ 0.345 1 2 cbr 1000 ------- 1 1.0 3.0 99 100
r 0.34516 1 2 cbr 1000 ------- 1 1.0 3.0 92 93
+ 0.34516 2 3 cbr 1000 ------- 1 1.0 3.0 92 93
d 0.34516 2 3 cbr 1000 ------- 1 1.0 3.0 92 93
- 0.34516 1 2 cbr 1000 ------- 1 1.0 3.0 99 100
r 0.34532 1 2 cbr 1000 ------- 1 1.0 3.0 93 94
+ 0.34532 2 3 cbr 1000 ------- 1 1.0 3.0 93 94
d 0.34532 2 3 cbr 1000 ------- 1 1.0 3.0 93 94
- 0.34716 2 3 cbr 1000 ------- 1 1.0 3.0 29 29
+ 0.35 1 2 cbr 1000 ------- 1 1.0 3.0 100 101
- 0.35 1 2 cbr 1000 ------- 1 1.0 3.0 100 101
+ 0.35 1 2 cbr 1000 ------- 1 1.0 3.0 101 102
r 0.35016 1 2 cbr 1000 ------- 1 1.0 3.0 94 95
+ 0.35016 2 3 cbr 1000 ------- 1 1.0 3.0 94 95
- 0.35016 1 2 cbr 1000 ------- 1 1.0 3.0 101 102
r 0.35032 1 2 cbr 1000 ------- 1 1.0 3.0 95 96
+ 0.35032 2 3 cbr 1000 ------- 1 1.0 3.0 95 96
d 0.35032 2 3 cbr 1000 ------- 1 1.0 3.0 95 96
r 0.35116 2 3 cbr 1000 ------- 1 1.0 3.0 26 26
+ 0.355 1 2 cbr 1000 ------- 1 1.0 3.0 102 103
- 0.355 1 2 cbr 1000 ------- 1 1.0 3.0 102 103
+ 0.355 1 2 cbr 1000 ------- 1 1.0 3.0 103 104
r 0.35516 1 2 cbr 1000 ------- 1 1.0 3.0 96 97
+ 0.35516 2 3 cbr 1000 ------- 1 1.0 3.0 96 97
d 0.35516 2 3 cbr 1000 ------- 1 1.0 3.0 96 97
- 0.35516 2 3 cbr 1000 ------- 1 1.0 3.0 30 30
- 0.35516 1 2 cbr 1000 ------- 1 1.0 3.0 103 104
r 0.35532 1 2 cbr 1000 ------- 1 1.0 3.0 97 98
+ 0.35532 2 3 cbr 1000 ------- 1 1.0 3.0 97 98
r 0.35916 2 3 cbr 1000 ------- 1 1.0 3.0 27 27
+ 0.36 1 2 cbr 1000 ------- 1 1.0 3.0 104 105
- 0.36 1 2 cbr 1000 ------- 1 1.0 3.0 104 105
+ 0.36 1 2 cbr 1000 ------- 1 1.0 3.0 105 106
r 0.36016 1 2 cbr 1000 ------- 1 1.0 3.0 98 99
+ 0.36016 2 3 cbr 1000 ------- 1 1.0 3.0 98 99
d 0.36016 2 3 cbr 1000 ------- 1 1.0 3.0 98 99
- 0.36016 1 2 cbr 1000 ------- 1 1.0 3.0 105 106
r 0.36032 1 2 cbr 1000 ------- 1 1.0 3.0 99 100
+ 0.36032 2 3 cbr 1000 ------- 1 1.0 3.0 99 100
d 0.36032 2 3 cbr 1000 ------- 1 1.0 3.0 99 100
- 0.36316 2 3 cbr 1000 ------- 1 1.0 3.0 31 31
+ 0.365 1 2 cbr 1000 ------- 1 1.0 3.0 106 107
- 0.365 1 2 cbr 1000 ------- 1 1.0 3.0 106 107
+ 0.365 1 2 cbr 1000 ------- 1 1.0 3.0 107 108
r 0.36516 1 2 cbr 1000 ------- 1 1.0 3.0 100 101
+ 0.36516 2 3 cbr 1000 ------- 1 1.0 3.0 100 101
- 0.36516 1 2 cbr 1000 ------- 1 1.0 3.0 107 108
r 0.36532 1 2 cbr 1000 ------- 1 1.0 3.0 101 102
+ 0.36532 2 3 cbr 1000 ------- 1 1.0 3.0 101 102
d 0.36532 2 3 cbr 1000 ------- 1 1.0 3.0 101 102
r 0.36716 2 3 cbr 1000 ------- 1 1.0 3.0 28 28
+ 0.37 1 2 cbr 1000 ------- 1 1.0 3.0 108 109
- 0.37 1 2 cbr 1000 ------- 1 1.0 3.0 108 109
+ 0.37 1 2 cbr 1000 ------- 1 1.0 3.0 109 110
r 0.37016 1 2 cbr 1000 ------- 1 1.0 3.0 102 103
+ 0.37016 2 3 cbr 1000 ------- 1 1.0 3.0 102 103
d 0.37016 2 3 cbr 1000 ------- 1 1.0 3.0 102 103
- 0.37016 1 2 cbr 1000 ------- 1 1.0 3.0 109 110
r 0.37032 1 2 cbr 1000 ------- 1 1.0 3.0 103 104
+ 0.37032 2 3 cbr 1000 ------- 1 1.0 3.0 103 104
d 0.37032 2 3 cbr 1000 ------- 1 1.0 3.0 103 104
- 0.37116 2 3 cbr 1000 ------- 1 1.0 3.0 32 32
+ 0.375 1 2 cbr 1000 ------- 1 1.0 3.0 110 111
- 0.375 1 2 cbr 1000 ------- 1 1.0 3.0 110 111
+ 0.375 1 2 cbr 1000 ------- 1 1.0 3.0 111 112
r 0.37516 2 3 cbr 1000 ------- 1 1.0 3.0 29 29
r 0.37516 1 2 cbr 1000 ------- 1 1.0 3.0 104 105
+ 0.37516 2 3 cbr 1000 ------- 1 1.0 3.0 104 105
- 0.37516 1 2 cbr 1000 ------- 1 1.0 3.0 111 112
r 0.37532 1 2 cbr 1000 ------- 1 1.0 3.0 105 106
+ 0.37532 2 3 cbr 1000 ------- 1 1.0 3.0 105 106
d 0.37532 2 3 cbr 1000 ------- 1 1.0 3.0 105 106
- 0.37916 2 3 cbr 1000 ------- 1 1.0 3.0 33 33
+ 0.38 1 2 cbr 1000 ------- 1 1.0 3.0 112 113
- 0.38 1 2 cbr 1000 ------- 1 1.0 3.0 112 113
+ 0.38 1 2 cbr 1000 ------- 1 1.0 3.0 113 114
r 0.38016 1 2 cbr 1000 ------- 1 1.0 3.0 106 107
+ 0.38016 2 3 cbr 1000 ------- 1 1.0 3.0 106 107
- 0.38016 1 2 cbr 1000 ------- 1 1.0 3.0 113 114
r 0.38032 1 2 cbr 1000 ------- 1 1.0 3.0 107 108
+ 0.38032 2 3 cbr 1000 ------- 1 1.0 3.0 107 108
d 0.38032 2 3 cbr 1000 ------- 1 1.0 3.0 107 108
r 0.38316 2 3 cbr 1000 ------- 1 1.0 3.0 30 30
+ 0.385 1 2 cbr 1000 ------- 1 1.0 3.0 114 115
- 0.385 1 2 cbr 1000 ------- 1 1.0 3.0 114 115
+ 0.385 1 2 cbr 1000 ------- 1 1.0 3.0 115 116
r 0.38516 1 2 cbr 1000 ------- 1 1.0 3.0 108 109
+ 0.38516 2 3 cbr 1000 ------- 1 1.0 3.0 108 109
d 0.38516 2 3 cbr 1000 ------- 1 1.0 3.0 108 109
- 0.38516 1 2 cbr 1000 ------- 1 1.0 3.0 115 116
r 0.38532 1 2 cbr 1000 ------- 1 1.0 3.0 109 110
+ 0.38532 2 3 cbr 1000 ------- 1 1.0 3.0 109 110
d 0.38532 2 3 cbr 1000 ------- 1 1.0 3.0 109 110
- 0.38716 2 3 cbr 1000 ------- 1 1.0 3.0 34 34
+ 0.39 1 2 cbr 1000 ------- 1 1.0 3.0 116 117
- 0.39 1 2 cbr 1000 ------- 1 1.0 3.0 116 117
+ 0.39 1 2 cbr 1000 ------- 1 1.0 3.0 117 118
r 0.39016 1 2 cbr 1000 ------- 1 1.0 3.0 110 111
+ 0.39016 2 3 cbr 1000 ------- 1 1.0 3.0 110 111
- 0.39016 1 2 cbr 1000 ------- 1 1.0 3.0 117 118
r 0.39032 1 2 cbr 1000 ------- 1 1.0 3.0 111 112
+ 0.39032 2 3 cbr 1000 ------- 1 1.0 3.0 111 112
d 0.39032 2 3 cbr 1000 ------- 1 1.0 3.0 111 112
r 0.39116 2 3 cbr 1000 ------- 1 1.0 3.0 31 31
+ 0.395 1 2 cbr 1000 ------- 1 1.0 3.0 118 119
- 0.395 1 2 cbr 1000 ------- 1 1.0 3.0 118 119
+ 0.395 1 2 cbr 1000 ------- 1 1.0 3.0 119 120
r 0.39516 1 2 cbr 1000 ------- 1 1.0 3.0 112 113
+ 0.39516 2 3 cbr 1000 ------- 1 1.0 3.0 112 113
d 0.39516 2 3 cbr 1000 ------- 1 1.0 3.0 112 113
- 0.39516 2 3 cbr 1000 ------- 1 1.0 3.0 35 35
- 0.39516 1 2 cbr 1000 ------- 1 1.0 3.0 119 120
r 0.39532 1 2 cbr 1000 ------- 1 1.0 3.0 113 114
+ 0.39532 2 3 cbr 1000 ------- 1 1.0 3.0 113 114
r 0.39916 2 3 cbr 1000 ------- 1 1.0 3.0 32 32
+ 0.4 1 2 cbr 1000 ------- 1 1.0 3.0 120 121
- 0.4 1 2 cbr 1000 ------- 1 1.0 3.0 120 121
+ 0.4 1 2 cbr 1000 ------- 1 1.0 3.0 121 122
r 0.40016 1 2 cbr 1000 ------- 1 1.0 3.0 114 115
+ 0.40016 2 3 cbr 1000 ------- 1 1.0 3.0 114 115
d 0.40016 2 3 cbr 1000 ------- 1 1.0 3.0 114 115
- 0.40016 1 2 cbr 1000 ------- 1 1.0 3.0 121 122
r 0.40032 1 2 cbr 1000 ------- 1 1.0 3.0 115 116
+ 0.40032 2 3 cbr 1000 ------- 1 1.0 3.0 115 116
d 0.40032 2 3 cbr 1000 ------- 1 1.0 3.0 115 116
- 0.40316 2 3 cbr 1000 ------- 1 1.0 3.0 36 36
+ 0.405 1 2 cbr 1000 ------- 1 1.0 3.0 122 123
- 0.405 1 2 cbr 1000 ------- 1 1.0 3.0 122 123
+ 0.405 1 2 cbr 1000 ------- 1 1.0 3.0 123 124
r 0.40516 1 2 cbr 1000 ------- 1 1.0 3.0 116 117
+ 0.40516 2 3 cbr 1000 ------- 1 1.0 3.0 116 117
- 0.40516 1 2 cbr 1000 ------- 1 1.0 3.0 123 124
r 0.40532 1 2 cbr 1000 ------- 1 1.0 3.0 117 118
+ 0.40532 2 3 cbr 1000 ------- 1 1.0 3.0 117 118
d 0.40532 2 3 cbr 1000 ------- 1 1.0 3.0 117 118
r 0.40716 2 3 cbr 1000 ------- 1 1.0 3.0 33 33
+ 0.41 1 2 cbr 1000 ------- 1 1.0 3.0 124 125
- 0.41 1 2 cbr 1000 ------- 1 1.0 3.0 124 125
+ 0.41 1 2 cbr 1000 ------- 1 1.0 3.0 125 126
r 0.41016 1 2 cbr 1000 ------- 1 1.0 3.0 118 119
+ 0.41016 2 3 cbr 1000 ------- 1 1.0 3.0 118 119
d 0.41016 2 3 cbr 1000 ------- 1 1.0 3.0 118 119
- 0.41016 1 2 cbr 1000 ------- 1 1.0 3.0 125 126
r 0.41032 1 2 cbr 1000 ------- 1 1.0 3.0 119 120
+ 0.41032 2 3 cbr 1000 ------- 1 1.0 3.0 119 120
d 0.41032 2 3 cbr 1000 ------- 1 1.0 3.0 119 120
- 0.41116 2 3 cbr 1000 ------- 1 1.0 3.0 37 37
+ 0.415 1 2 cbr 1000 ------- 1 1.0 3.0 126 127
- 0.415 1 2 cbr 1000 ------- 1 1.0 3.0 126 127
+ 0.415 1 2 cbr 1000 ------- 1 1.0 3.0 127 128
r 0.41516 2 3 cbr 1000 ------- 1 1.0 3.0 34 34
r 0.41516 1 2 cbr 1000 ------- 1 1.0 3.0 120 121
+ 0.41516 2 3 cbr 1000 ------- 1 1.0 3.0 120 121
- 0.41516 1 2 cbr 1000 ------- 1 1.0 3.0 127 128
r 0.41532 1 2 cbr 1000 ------- 1 1.0 3.0 121 122
+ 0.41532 2 3 cbr 1000 ------- 1 1.0 3.0 121 122
d 0.41532 2 3 cbr 1000 ------- 1 1.0 3.0 121 122
- 0.41916 2 3 tcp 40 ------- 2 0.0 3.1 0 40
- 0.41948 2 3 cbr 1000 ------- 1 1.0 3.0 38 38
+ 0.42 1 2 cbr 1000 ------- 1 1.0 3.0 128 129
- 0.42 1 2 cbr 1000 ------- 1 1.0 3.0 128 129
+ 0.42 1 2 cbr 1000 ------- 1 1.0 3.0 129 130
r 0.42016 1 2 cbr 1000 ------- 1 1.0 3.0 122 123
+ 0.42016 2 3 cbr 1000 ------- 1 1.0 3.0 122 123
- 0.42016 1 2 cbr 1000 ------- 1 1.0 3.0 129 130
r 0.42032 1 2 cbr 1000 ------- 1 1.0 3.0 123 124
+ 0.42032 2 3 cbr 1000 ------- 1 1.0 3.0 123 124
r 0.42316 2 3 cbr 1000 ------- 1 1.0 3.0 35 35
+ 0.425 1 2 cbr 1000 ------- 1 1.0 3.0 130 131
- 0.425 1 2 cbr 1000 ------- 1 1.0 3.0 130 131
+ 0.425 1 2 cbr 1000 ------- 1 1.0 3.0 131 132
r 0.42516 1 2 cbr 1000 ------- 1 1.0 3.0 124 125
+ 0.42516 2 3 cbr 1000 ------- 1 1.0 3.0 124 125
d 0.42516 2 3 cbr 1000 ------- 1 1.0 3.0 124 125
- 0.42516 1 2 cbr 1000 ------- 1 1.0 3.0 131 132
r 0.42532 1 2 cbr 1000 ------- 1 1.0 3.0 125 126
+ 0.42532 2 3 cbr 1000 ------- 1 1.0 3.0 125 126
d 0.42532 2 3 cbr 1000 ------- 1 1.0 3.0 125 126
- 0.42748 2 3 cbr 1000 ------- 1 1.0 3.0 39 39
+ 0.43 1 2 cbr 1000 ------- 1 1.0 3.0 132 133
- 0.43 1 2 cbr 1000 ------- 1 1.0 3.0 132 133
+ 0.43 1 2 cbr 1000 ------- 1 1.0 3.0 133 134
r 0.43016 1 2 cbr 1000 ------- 1 1.0 3.0 126 127
+ 0.43016 2 3 cbr 1000 ------- 1 1.0 3.0 126 127
- 0.43016 1 2 cbr 1000 ------- 1 1.0 3.0 133 134
r 0.43032 1 2 cbr 1000 ------- 1 1.0 3.0 127 128
+ 0.43032 2 3 cbr 1000 ------- 1 1.0 3.0 127 128
d 0.43032 2 3 cbr 1000 ------- 1 1.0 3.0 127 128
r 0.43116 2 3 cbr 1000 ------- 1 1.0 3.0 36 36
+ 0.435 1 2 cbr 1000 ------- 1 1.0 3.0 134 135