s 0.001560381 _0_ RTR  --- 0 message 32 [0 0 0 0] ------- [0:255 -1:255 32 0] 
s 0.001635381 _0_ MAC  --- 0 message 90 [0 ffffffff 0 800] ------- [0:255 -1:255 32 0] 
s 0.036574082 _2_ RTR  --- 1 message 32 [0 0 0 0] ------- [2:255 -1:255 32 0] 
s 0.037009082 _2_ MAC  --- 1 message 90 [0 ffffffff 2 800] ------- [2:255 -1:255 32 0] 
M 0.10000 0 (148.00, 300.00, 0.00), (50.00, 50.00), 15.00
M 0.10000 1 (524.00, 279.00, 0.00), (100.00, 100.00), 25.00
M 0.10000 2 (853.00, 299.00, 0.00), (200.00, 200.00), 25.00
s 1.000000000 _0_ AGT  --- 2 cbr 1000 [0 0 0 0] ------- [0:0 2:0 32 0] [0] 0 0
r 1.000000000 _0_ RTR  --- 2 cbr 1000 [0 0 0 0] ------- [0:0 2:0 32 0] [0] 0 0
s 1.008000000 _0_ AGT  --- 3 cbr 1000 [0 0 0 0] ------- [0:0 2:0 32 0] [1] 0 0
r 1.008000000 _0_ RTR  --- 3 cbr 1000 [0 0 0 0] ------- [0:0 2:0 32 0] [1] 0 0
s 1.016000000 _0_ AGT  --- 4 cbr 1000 [0 0 0 0] ------- [0:0 2:0 32 0] [2] 0 0
r 1.016000000 _0_ RTR  --- 4 cbr 1000 [0 0 0 0] ------- [0:0 2:0 32 0] [2] 0 0
s 1.024000000 _0_ AGT  --- 5 cbr 1000 [0 0 0 0] ------- [0:0 2:0 32 0] [3] 0 0
r 1.024000000 _0_ RTR  --- 5 cbr 1000 [0 0 0 0] ------- [0:0 2:0 32 0] [3] 0 0
s 1.032000000 _0_ AGT  --- 6 cbr 1000 [0 0 0 0] ------- [0:0 2:0 32 0] [4] 0 0
r 1.032000000 _0_ RTR  --- 6 cbr 1000 [0 0 0 0] ------- [0:0 2:0 32 0] [4] 0 0
s 1.040000000 _0_ AGT  --- 7 cbr 1000 [0 0 0 0] ------- [0:0 2:0 32 0] [5] 0 0
r 1.040000000 _0_ RTR  --- 7 cbr 1000 [0 0 0 0] ------- [0:0 2:0 32 0] [5] 0 0
D 1.040000000 _0_ RTR  IFQ 2 cbr 1020 [0 0 0 0] ------- [0:0 2:0 32 0] [0] 0 0
s 1.048000000 _0_ AGT  --- 8 cbr 1000 [0 0 0 0] ------- [0:0 2:0 32 0] [6] 0 0
r 1.048000000 _0_ RTR  --- 8 cbr 1000 [0 0 0 0] ------- [0:0 2:0 32 0] [6] 0 0
D 1.048000000 _0_ RTR  IFQ 3 cbr 1020 [0 0 0 0] ------- [0:0 2:0 32 0] [1] 0 0
s 1.056000000 _0_ AGT  --- 9 cbr 1000 [0 0 0 0] ------- [0:0 2:0 32 0] [7] 0 0
r 1.056000000 _0_ RTR  --- 9 cbr 1000 [0 0 0 0] ------- [0:0 2:0 32 0] [7] 0 0
D 1.056000000 _0_ RTR  IFQ 4 cbr 1020 [0 0 0 0] ------- [0:0 2:0 32 0] [2] 0 0
s 1.064000000 _0_ AGT  --- 10 cbr 1000 [0 0 0 0] ------- [0:0 2:0 32 0] [8] 0 0
r 1.064000000 _0_ RTR  --- 10 cbr 1000 [0 0 0 0] ------- [0:0 2:0 32 0] [8] 0 0
D 1.064000000 _0_ RTR  IFQ 5 cbr 1020 [0 0 0 0] ------- [0:0 2:0 32 0] [3] 0 0
s 1.072000000 _0_ AGT  --- 11 cbr 1000 [0 0 0 0] ------- [0:0 2:0 32 0] [9] 0 0
r 1.072000000 _0_ RTR  --- 11 cbr 1000 [0 0 0 0] ------- [0:0 2:0 32 0] [9] 0 0
D 1.072000000 _0_ RTR  IFQ 6 cbr 1020 [0 0 0 0] ------- [0:0 2:0 32 0] [4] 0 0
s 1.080000000 _0_ AGT  --- 12 cbr 1000 [0 0 0 0] ------- [0:0 2:0 32 0] [10] 0 0
r 1.080000000 _0_ RTR  --- 12 cbr 1000 [0 0 0 0] ------- [0:0 2:0 32 0] [10] 0 0
D 1.080000000 _0_ RTR  IFQ 7 cbr 1020 [0 0 0 0] ------- [0:0 2:0 32 0] [5] 0 0
s 1.088000000 _0_ AGT  --- 13 cbr 1000 [0 0 0 0] ------- [0:0 2:0 32 0] [11] 0 0
r 1.088000000 _0_ RTR  --- 13 cbr 1000 [0 0 0 0] ------- [0:0 2:0 32 0] [11] 0 0
D 1.088000000 _0_ RTR  IFQ 8 cbr 1020 [0 0 0 0] ------- [0:0 2:0 32 0] [6] 0 0
s 1.096000000 _0_ AGT  --- 14 cbr 1000 [0 0 0 0] ------- [0:0 2:0 32 0] [12] 0 0
r 1.096000000 _0_ RTR  --- 14 cbr 1000 [0 0 0 0] ------- [0:0 2:0 32 0] [12] 0 0
D 1.096000000 _0_ RTR  IFQ 9 cbr 1020 [0 0 0 0] ------- [0:0 2:0 32 0] [7] 0 0
s 1.104000000 _0_ AGT  --- 15 cbr 1000 [0 0 0 0] ------- [0:0 2:0 32 0] [13] 0 0
r 1.104000000 _0_ RTR  --- 15 cbr 1000 [0 0 0 0] ------- [0:0 2:0 32 0] [13] 0 0
D 1.104000000 _0_ RTR  IFQ 10 cbr 1020 [0 0 0 0] ------- [0:0 2:0 32 0] [8] 0 0
s 1.112000000 _0_ AGT  --- 17 cbr 1000 [0 0 0 0] ------- [0:0 2:0 32 0] [14] 0 0
r 1.112000000 _0_ RTR  --- 17 cbr 1000 [0 0 0 0] ------- [0:0 2:0 32 0] [14] 0 0
D 1.112000000 _0_ RTR  IFQ 11 cbr 1020 [0 0 0 0] ------- [0:0 2:0 32 0] [9] 0 0
s 1.120000000 _0_ AGT  --- 18 cbr 1000 [0 0 0 0] ------- [0:0 2:0 32 0] [15] 0 0
r 1.120000000 _0_ RTR  --- 18 cbr 1000 [0 0 0 0] ------- [0:0 2:0 32 0] [15] 0 0
D 1.120000000 _0_ RTR  IFQ 12 cbr 1020 [0 0 0 0] ------- [0:0 2:0 32 0] [10] 0 0
s 1.120124667 _1_ RTR  --- 16 message 32 [0 0 0 0] ------- [1:255 -1:255 32 0] 
s 1.120739667 _1_ MAC  --- 16 message 90 [0 ffffffff 1 800] ------- [1:255 -1:255 32 0] 
s 1.128000000 _0_ AGT  --- 19 cbr 1000 [0 0 0 0] ------- [0:0 2:0 32 0] [16] 0 0
r 1.128000000 _0_ RTR  --- 19 cbr 1000 [0 0 0 0] ------- [0:0 2:0 32 0] [16] 0 0
D 1.128000000 _0_ RTR  IFQ 13 cbr 1020 [0 0 0 0] ------- [0:0 2:0 32 0] [11] 0 0
s 1.136000000 _0_ AGT  --- 20 cbr 1000 [0 0 0 0] ------- [0:0 2:0 32 0] [17] 0 0
r 1.136000000 _0_ RTR  --- 20 cbr 1000 [0 0 0 0] ------- [0:0 2:0 32 0] [17] 0 0
D 1.136000000 _0_ RTR  IFQ 14 cbr 1020 [0 0 0 0] ------- [0:0 2:0 32 0] [12] 0 0
s 1.144000000 _0_ AGT  --- 21 cbr 1000 [0 0 0 0] ------- [0:0 2:0 32 0] [18] 0 0
r 1.144000000 _0_ RTR  --- 21 cbr 1000 [0 0 0 0] ------- [0:0 2:0 32 0] [18] 0 0
D 1.144000000 _0_ RTR  IFQ 15 cbr 1020 [0 0 0 0] ------- [0:0 2:0 32 0] [13] 0 0
s 1.152000000 _0_ AGT  --- 22 cbr 1000 [0 0 0 0] ------- [0:0 2:0 32 0] [19] 0 0
r 1.152000000 _0_ RTR  --- 22 cbr 1000 [0 0 0 0] ------- [0:0 2:0 32 0] [19] 0 0
D 1.152000000 _0_ RTR  IFQ 17 cbr 1020 [0 0 0 0] ------- [0:0 2:0 32 0] [14] 0 0
s 1.160000000 _0_ AGT  --- 23 cbr 1000 [0 0 0 0] ------- [0:0 2:0 32 0] [20] 0 0
r 1.160000000 _0_ RTR  --- 23 cbr 1000 [0 0 0 0] ------- [0:0 2:0 32 0] [20] 0 0
D 1.160000000 _0_ RTR  IFQ 18 cbr 1020 [0 0 0 0] ------- [0:0 2:0 32 0] [15] 0 0
s 1.168000000 _0_ AGT  --- 24 cbr 1000 [0 0 0 0] ------- [0:0 2:0 32 0] [21] 0 0
r 1.168000000 _0_ RTR  --- 24 cbr 1000 [0 0 0 0] ------- [0:0 2:0 32 0] [21] 0 0
D 1.168000000 _0_ RTR  IFQ 19 cbr 1020 [0 0 0 0] ------- [0:0 2:0 32 0] [16] 0 0
s 1.176000000 _0_ AGT  --- 25 cbr 1000 [0 0 0 0] ------- [0:0 2:0 32 0] [22] 0 0
r 1.176000000 _0_ RTR  --- 25 cbr 1000 [0 0 0 0] ------- [0:0 2:0 32 0] [22] 0 0
D 1.176000000 _0_ RTR  IFQ 20 cbr 1020 [0 0 0 0] ------- [0:0 2:0 32 0] [17] 0 0
s 1.184000000 _0_ AGT  --- 26 cbr 1000 [0 0 0 0] ------- [0:0 2:0 32 0] [23] 0 0
r 1.184000000 _0_ RTR  --- 26 cbr 1000 [0 0 0 0] ------- [0:0 2:0 32 0] [23] 0 0
D 1.184000000 _0_ RTR  IFQ 21 cbr 1020 [0 0 0 0] ------- [0:0 2:0 32 0] [18] 0 0
s 1.192000000 _0_ AGT  --- 27 cbr 1000 [0 0 0 0] ------- [0:0 2:0 32 0] [24] 0 0
r 1.192000000 _0_ RTR  --- 27 cbr 1000 [0 0 0 0] ------- [0:0 2:0 32 0] [24] 0 0
D 1.192000000 _0_ RTR  IFQ 22 cbr 1020 [0 0 0 0] ------- [0:0 2:0 32 0] [19] 0 0
s 1.200000000 _0_ AGT  --- 28 cbr 1000 [0 0 0 0] ------- [0:0 2:0 32 0] [25] 0 0
r 1.200000000 _0_ RTR  --- 28 cbr 1000 [0 0 0 0] ------- [0:0 2:0 32 0] [25] 0 0
D 1.200000000 _0_ RTR  IFQ 23 cbr 1020 [0 0 0 0] ------- [0:0 2:0 32 0] [20] 0 0
s 1.208000000 _0_ AGT  --- 29 cbr 1000 [0 0 0 0] ------- [0:0 2:0 32 0] [26] 0 0
r 1.208000000 _0_ RTR  --- 29 cbr 1000 [0 0 0 0] ------- [0:0 2:0 32 0] [26] 0 0
D 1.208000000 _0_ RTR  IFQ 24 cbr 1020 [0 0 0 0] ------- [0:0 2:0 32 0] [21] 0 0
s 1.216000000 _0_ AGT  --- 30 cbr 1000 [0 0 0 0] ------- [0:0 2:0 32 0] [27] 0 0
r 1.216000000 _0_ RTR  --- 30 cbr 1000 [0 0 0 0] ------- [0:0 2:0 32 0] [27] 0 0
D 1.216000000 _0_ RTR  IFQ 25 cbr 1020 [0 0 0 0] ------- [0:0 2:0 32 0] [22] 0 0
s 1.224000000 _0_ AGT  --- 31 cbr 1000 [0 0 0 0] ------- [0:0 2:0 32 0] [28] 0 0
r 1.224000000 _0_ RTR  --- 31 cbr 1000 [0 0 0 0] ------- [0:0 2:0 32 0] [28] 0 0
D 1.224000000 _0_ RTR  IFQ 26 cbr 1020 [0 0 0 0] ------- [0:0 2:0 32 0] [23] 0 0
s 1.232000000 _0_ AGT  --- 32 cbr 1000 [0 0 0 0] ------- [0:0 2:0 32 0] [29] 0 0
r 1.232000000 _0_ RTR  --- 32 cbr 1000 [0 0 0 0] ------- [0:0 2:0 32 0] [29] 0 0
D 1.232000000 _0_ RTR  IFQ 27 cbr 1020 [0 0 0 0] ------- [0:0 2:0 32 0] [24] 0 0
s 1.240000000 _0_ AGT  --- 33 cbr 1000 [0 0 0 0] ------- [0:0 2:0 32 0] [30] 0 0
r 1.240000000 _0_ RTR  --- 33 cbr 1000 [0 0 0 0] ------- [0:0 2:0 32 0] [30] 0 0
D 1.240000000 _0_ RTR  IFQ 28 cbr 1020 [0 0 0 0] ------- [0:0 2:0 32 0] [25] 0 0
s 1.248000000 _0_ AGT  --- 34 cbr 1000 [0 0 0 0] ------- [0:0 2:0 32 0] [31] 0 0
r 1.248000000 _0_ RTR  --- 34 cbr 1000 [0 0 0 0] ------- [0:0 2:0 32 0] [31] 0 0
D 1.248000000 _0_ RTR  IFQ 29 cbr 1020 [0 0 0 0] ------- [0:0 2:0 32 0] [26] 0 0
s 1.256000000 _0_ AGT  --- 35 cbr 1000 [0 0 0 0] ------- [0:0 2:0 32 0] [32] 0 0
r 1.256000000 _0_ RTR  --- 35 cbr 1000 [0 0 0 0] ------- [0:0 2:0 32 0] [32] 0 0
D 1.256000000 _0_ RTR  IFQ 30 cbr 1020 [0 0 0 0] ------- [0:0 2:0 32 0] [27] 0 0
s 1.264000000 _0_ AGT  --- 36 cbr 1000 [0 0 0 0] ------- [0:0 2:0 32 0] [33] 0 0
r 1.264000000 _0_ RTR  --- 36 cbr 1000 [0 0 0 0] ------- [0:0 2:0 32 0] [33] 0 0
D 1.264000000 _0_ RTR  IFQ 31 cbr 1020 [0 0 0 0] ------- [0:0 2:0 32 0] [28] 0 0
s 1.272000000 _0_ AGT  --- 37 cbr 1000 [0 0 0 0] ------- [0:0 2:0 32 0] [34] 0 0
r 1.272000000 _0_ RTR  --- 37 cbr 1000 [0 0 0 0] ------- [0:0 2:0 32 0] [34] 0 0
D 1.272000000 _0_ RTR  IFQ 32 cbr 1020 [0 0 0 0] ------- [0:0 2:0 32 0] [29] 0 0
s 1.280000000 _0_ AGT  --- 38 cbr 1000 [0 0 0 0] ------- [0:0 2:0 32 0] [35] 0 0
r 1.280000000 _0_ RTR  --- 38 cbr 1000 [0 0 0 0] ------- [0:0 2:0 32 0] [35] 0 0
D 1.280000000 _0_ RTR  IFQ 33 cbr 1020 [0 0 0 0] ------- [0:0 2:0 32 0] [30] 0 0
s 1.288000000 _0_ AGT  --- 39 cbr 1000 [0 0 0 0] ------- [0:0 2:0 32 0] [36] 0 0
r 1.288000000 _0_ RTR  --- 39 cbr 1000 [0 0 0 0] ------- [0:0 2:0 32 0] [36] 0 0
D 1.288000000 _0_ RTR  IFQ 34 cbr 1020 [0 0 0 0] ------- [0:0 2:0 32 0] [31] 0 0
s 1.296000000 _0_ AGT  --- 40 cbr 1000 [0 0 0 0] ------- [0:0 2:0 32 0] [37] 0 0
r 1.296000000 _0_ RTR  --- 40 cbr 1000 [0 0 0 0] ------- [0:0 2:0 32 0] [37] 0 0
D 1.296000000 _0_ RTR  IFQ 35 cbr 1020 [0 0 0 0] ------- [0:0 2:0 32 0] [32] 0 0
s 1.304000000 _0_ AGT  --- 41 cbr 1000 [0 0 0 0] ------- [0:0 2:0 32 0] [38] 0 0
r 1.304000000 _0_ RTR  --- 41 cbr 1000 [0 0 0 0] ------- [0:0 2:0 32 0] [38] 0 0
D 1.304000000 _0_ RTR  IFQ 36 cbr 1020 [0 0 0 0] ------- [0:0 2:0 32 0] [33] 0 0
s 1.312000000 _0_ AGT  --- 42 cbr 1000 [0 0 0 0] ------- [0:0 2:0 32 0] [39] 0 0
r 1.312000000 _0_ RTR  --- 42 cbr 1000 [0 0 0 0] ------- [0:0 2:0 32 0] [39] 0 0
D 1.312000000 _0_ RTR  IFQ 37 cbr 1020 [0 0 0 0] ------- [0:0 2:0 32 0] [34] 0 0
s 1.320000000 _0_ AGT  --- 43 cbr 1000 [0 0 0 0] ------- [0:0 2:0 32 0] [40] 0 0
r 1.320000000 _0_ RTR  --- 43 cbr 1000 [0 0 0 0] ------- [0:0 2:0 32 0] [40] 0 0
D 1.320000000 _0_ RTR  IFQ 38 cbr 1020 [0 0 0 0] ------- [0:0 2:0 32 0] [35] 0 0
s 1.328000000 _0_ AGT  --- 44 cbr 1000 [0 0 0 0] ------- [0:0 2:0 32 0] [41] 0 0
r 1.328000000 _0_ RTR  --- 44 cbr 1000 [0 0 0 0] ------- [0:0 2:0 32 0] [41] 0 0
D 1.328000000 _0_ RTR  IFQ 39 cbr 1020 [0 0 0 0] ------- [0:0 2:0 32 0] [36] 0 0
s 1.336000000 _0_ AGT  --- 45 cbr 1000 [0 0 0 0] ------- [0:0 2:0 32 0] [42] 0 0
r 1.336000000 _0_ RTR  --- 45 cbr 1000 [0 0 0 0] ------- [0:0 2:0 32 0] [42] 0 0
D 1.336000000 _0_ RTR  IFQ 40 cbr 1020 [0 0 0 0] ------- [0:0 2:0 32 0] [37] 0 0
s 1.344000000 _0_ AGT  --- 46 cbr 1000 [0 0 0 0] ------- [0:0 2:0 32 0] [43] 0 0
r 1.344000000 _0_ RTR  --- 46 cbr 1000 [0 0 0 0] ------- [0:0 2:0 32 0] [43] 0 0
D 1.344000000 _0_ RTR  IFQ 41 cbr 1020 [0 0 0 0] ------- [0:0 2:0 32 0] [38] 0 0
s 1.352000000 _0_ AGT  --- 47 cbr 1000 [0 0 0 0] ------- [0:0 2:0 32 0] [44] 0 0
r 1.352000000 _0_ RTR  --- 47 cbr 1000 [0 0 0 0] ------- [0:0 2:0 32 0] [44] 0 0
D 1.352000000 _0_ RTR  IFQ 42 cbr 1020 [0 0 0 0] ------- [0:0 2:0 32 0] [39] 0 0
s 1.360000000 _0_ AGT  --- 48 cbr 1000 [0 0 0 0] ------- [0:0 2:0 32 0] [45] 0 0
r 1.360000000 _0_ RTR  --- 48 cbr 1000 [0 0 0 0] ------- [0:0 2:0 32 0] [45] 0 0
D 1.360000000 _0_ RTR  IFQ 43 cbr 1020 [0 0 0 0] ------- [0:0 2:0 32 0] [40] 0 0
s 1.368000000 _0_ AGT  --- 49 cbr 1000 [0 0 0 0] ------- [0:0 2:0 32 0] [46] 0 0
r 1.368000000 _0_ RTR  --- 49 cbr 1000 [0 0 0 0] ------- [0:0 2:0 32 0] [46] 0 0
D 1.368000000 _0_ RTR  IFQ 44 cbr 1020 [0 0 0 0] ------- [0:0 2:0 32 0] [41] 0 0
s 1.376000000 _0_ AGT  --- 50 cbr 1000 [0 0 0 0] ------- [0:0 2:0 32 0] [47] 0 0
r 1.376000000 _0_ RTR  --- 50 cbr 1000 [0 0 0 0] ------- [0:0 2:0 32 0] [47] 0 0
D 1.376000000 _0_ RTR  IFQ 45 cbr 1020 [0 0 0 0] ------- [0:0 2:0 32 0] [42] 0 0
s 1.384000000 _0_ AGT  --- 51 cbr 1000 [0 0 0 0] ------- [0:0 2:0 32 0] [48] 0 0
r 1.384000000 _0_ RTR  --- 51 cbr 1000 [0 0 0 0] ------- [0:0 2:0 32 0] [48] 0 0
D 1.384000000 _0_ RTR  IFQ 46 cbr 1020 [0 0 0 0] ------- [0:0 2:0 32 0] [43] 0 0
s 1.392000000 _0_ AGT  --- 52 cbr 1000 [0 0 0 0] ------- [0:0 2:0 32 0] [49] 0 0
r 1.392000000 _0_ RTR  --- 52 cbr 1000 [0 0 0 0] ------- [0:0 2:0 32 0] [49] 0 0
D 1.392000000 _0_ RTR  IFQ 47 cbr 1020 [0 0 0 0] ------- [0:0 2:0 32 0] [44] 0 0
s 1.400000000 _0_ AGT  --- 53 cbr 1000 [0 0 0 0] ------- [0:0 2:0 32 0] [50] 0 0
r 1.400000000 _0_ RTR  --- 53 cbr 1000 [0 0 0 0] ------- [0:0 2:0 32 0] [50] 0 0
D 1.400000000 _0_ RTR  IFQ 48 cbr 1020 [0 0 0 0] ------- [0:0 2:0 32 0] [45] 0 0
s 1.408000000 _0_ AGT  --- 54 cbr 1000 [0 0 0 0] ------- [0:0 2:0 32 0] [51] 0 0
r 1.408000000 _0_ RTR  --- 54 cbr 1000 [0 0 0 0] ------- [0:0 2:0 32 0] [51] 0 0
D 1.408000000 _0_ RTR  IFQ 49 cbr 1020 [0 0 0 0] ------- [0:0 2:0 32 0] [46] 0 0
s 1.416000000 _0_ AGT  --- 55 cbr 1000 [0 0 0 0] ------- [0:0 2:0 32 0] [52] 0 0
r 1.416000000 _0_ RTR  --- 55 cbr 1000 [0 0 0 0] ------- [0:0 2:0 32 0] [52] 0 0
D 1.416000000 _0_ RTR  IFQ 50 cbr 1020 [0 0 0 0] ------- [0:0 2:0 32 0] [47] 0 0
s 1.424000000 _0_ AGT  --- 56 cbr 1000 [0 0 0 0] ------- [0:0 2:0 32 0] [53] 0 0
r 1.424000000 _0_ RTR  --- 56 cbr 1000 [0 0 0 0] ------- [0:0 2:0 32 0] [53] 0 0
D 1.424000000 _0_ RTR  IFQ 51 cbr 1020 [0 0 0 0] ------- [0:0 2:0 32 0] [48] 0 0
s 1.432000000 _0_ AGT  --- 57 cbr 1000 [0 0 0 0] ------- [0:0 2:0 32 0] [54] 0 0
r 1.432000000 _0_ RTR  --- 57 cbr 1000 [0 0 0 0] ------- [0:0 2:0 32 0] [54] 0 0
D 1.432000000 _0_ RTR  IFQ 52 cbr 1020 [0 0 0 0] ------- [0:0 2:0 32 0] [49] 0 0
s 1.440000000 _0_ AGT  --- 58 cbr 1000 [0 0 0 0] ------- [0:0 2:0 32 0] [55] 0 0
r 1.440000000 _0_ RTR  --- 58 cbr 1000 [0 0 0 0] ------- [0:0 2:0 32 0] [55] 0 0
D 1.440000000 _0_ RTR  IFQ 53 cbr 1020 [0 0 0 0] ------- [0:0 2:0 32 0] [50] 0 0
s 1.448000000 _0_ AGT  --- 59 cbr 1000 [0 0 0 0] ------- [0:0 2:0 32 0] [56] 0 0
r 1.448000000 _0_ RTR  --- 59 cbr 1000 [0 0 0 0] ------- [0:0 2:0 32 0] [56] 0 0
D 1.448000000 _0_ RTR  IFQ 54 cbr 1020 [0 0 0 0] ------- [0:0 2:0 32 0] [51] 0 0
s 1.456000000 _0_ AGT  --- 60 cbr 1000 [0 0 0 0] ------- [0:0 2:0 32 0] [57] 0 0
r 1.456000000 _0_ RTR  --- 60 cbr 1000 [0 0 0 0] ------- [0:0 2:0 32 0] [57] 0 0
D 1.456000000 _0_ RTR  IFQ 55 cbr 1020 [0 0 0 0] ------- [0:0 2:0 32 0] [52] 0 0
s 1.464000000 _0_ AGT  --- 61 cbr 1000 [0 0 0 0] ------- [0:0 2:0 32 0] [58] 0 0
r 1.464000000 _0_ RTR  --- 61 cbr 1000 [0 0 0 0] ------- [0:0 2:0 32 0] [58] 0 0
D 1.464000000 _0_ RTR  IFQ 56 cbr 1020 [0 0 0 0] ------- [0:0 2:0 32 0] [53] 0 0
s 1.472000000 _0_ AGT  --- 62 cbr 1000 [0 0 0 0] ------- [0:0 2:0 32 0] [59] 0 0
r 1.472000000 _0_ RTR  --- 62 cbr 1000 [0 0 0 0] ------- [0:0 2:0 32 0] [59] 0 0
D 1.472000000 _0_ RTR  IFQ 57 cbr 1020 [0 0 0 0] ------- [0:0 2:0 32 0] [54] 0 0
s 1.480000000 _0_ AGT  --- 63 cbr 1000 [0 0 0 0] ------- [0:0 2:0 32 0] [60] 0 0
r 1.480000000 _0_ RTR  --- 63 cbr 1000 [0 0 0 0] ------- [0:0 2:0 32 0] [60] 0 0
D 1.480000000 _0_ RTR  IFQ 58 cbr 1020 [0 0 0 0] ------- [0:0 2:0 32 0] [55] 0 0
s 1.488000000 _0_ AGT  --- 64 cbr 1000 [0 0 0 0] ------- [0:0 2:0 32 0] [61] 0 0
r 1.488000000 _0_ RTR  --- 64 cbr 1000 [0 0 0 0] ------- [0:0 2:0 32 0] [61] 0 0
D 1.488000000 _0_ RTR  IFQ 59 cbr 1020 [0 0 0 0] ------- [0:0 2:0 32 0] [56] 0 0
s 1.496000000 _0_ AGT  --- 65 cbr 1000 [0 0 0 0] ------- [0:0 2:0 32 0] [62] 0 0
r 1.496000000 _0_ RTR  --- 65 cbr 1000 [0 0 0 0] ------- [0:0 2:0 32 0] [62] 0 0
D 1.496000000 _0_ RTR  IFQ 60 cbr 1020 [0 0 0 0] ------- [0:0 2:0 32 0] [57] 0 0
s 1.504000000 _0_ AGT  --- 66 cbr 1000 [0 0 0 0] ------- [0:0 2:0 32 0] [63] 0 0
r 1.504000000 _0_ RTR  --- 66 cbr 1000 [0 0 0 0] ------- [0:0 2:0 32 0] [63] 0 0
D 1.504000000 _0_ RTR  IFQ 61 cbr 1020 [0 0 0 0] ------- [0:0 2:0 32 0] [58] 0 0
s 1.512000000 _0_ AGT  --- 67 cbr 1000 [0 0 0 0] ------- [0:0 2:0 32 0] [64] 0 0
r 1.512000000 _0_ RTR  --- 67 cbr 1000 [0 0 0 0] ------- [0:0 2:0 32 0] [64] 0 0
D 1.512000000 _0_ RTR  IFQ 62 cbr 1020 [0 0 0 0] ------- [0:0 2:0 32 0] [59] 0 0
s 1.520000000 _0_ AGT  --- 68 cbr 1000 [0 0 0 0] ------- [0:0 2:0 32 0] [65] 0 0
r 1.520000000 _0_ RTR  --- 68 cbr 1000 [0 0 0 0] ------- [0:0 2:0 32 0] [65] 0 0
D 1.520000000 _0_ RTR  IFQ 63 cbr 1020 [0 0 0 0] ------- [0:0 2:0 32 0] [60] 0 0
s 1.528000000 _0_ AGT  --- 69 cbr 1000 [0 0 0 0] ------- [0:0 2:0 32 0] [66] 0 0
r 1.528000000 _0_ RTR  --- 69 cbr 1000 [0 0 0 0] ------- [0:0 2:0 32 0] [66] 0 0
D 1.528000000 _0_ RTR  IFQ 64 cbr 1020 [0 0 0 0] ------- [0:0 2:0 32 0] [61] 0 0
s 1.536000000 _0_ AGT  --- 70 cbr 1000 [0 0 0 0] ------- [0:0 2:0 32 0] [67] 0 0
r 1.536000000 _0_ RTR  --- 70 cbr 1000 [0 0 0 0] ------- [0:0 2:0 32 0] [67] 0 0
D 1.536000000 _0_ RTR  IFQ 65 cbr 1020 [0 0 0 0] ------- [0:0 2:0 32 0] [62] 0 0
s 1.544000000 _0_ AGT  --- 71 cbr 1000 [0 0 0 0] ------- [0:0 2:0 32 0] [68] 0 0
r 1.544000000 _0_ RTR  --- 71 cbr 1000 [0 0 0 0] ------- [0:0 2:0 32 0] [68] 0 0
D 1.544000000 _0_ RTR  IFQ 66 cbr 1020 [0 0 0 0] ------- [0:0 2:0 32 0] [63] 0 0
s 1.552000000 _0_ AGT  --- 72 cbr 1000 [0 0 0 0] ------- [0:0 2:0 32 0] [69] 0 0
r 1.552000000 _0_ RTR  --- 72 cbr 1000 [0 0 0 0] ------- [0:0 2:0 32 0] [69] 0 0
D 1.552000000 _0_ RTR  IFQ 67 cbr 1020 [0 0 0 0] ------- [0:0 2:0 32 0] [64] 0 0
s 1.560000000 _0_ AGT  --- 73 cbr 1000 [0 0 0 0] ------- [0:0 2:0 32 0] [70] 0 0
r 1.560000000 _0_ RTR  --- 73 cbr 1000 [0 0 0 0] ------- [0:0 2:0 32 0] [70] 0 0
D 1.560000000 _0_ RTR  IFQ 68 cbr 1020 [0 0 0 0] ------- [0:0 2:0 32 0] [65] 0 0
s 1.568000000 _0_ AGT  --- 74 cbr 1000 [0 0 0 0] ------- [0:0 2:0 32 0] [71] 0 0
r 1.568000000 _0_ RTR  --- 74 cbr 1000 [0 0 0 0] ------- [0:0 2:0 32 0] [71] 0 0
D 1.568000000 _0_ RTR  IFQ 69 cbr 1020 [0 0 0 0] ------- [0:0 2:0 32 0] [66] 0 0
s 1.576000000 _0_ AGT  --- 75 cbr 1000 [0 0 0 0] ------- [0:0 2:0 32 0] [72] 0 0
r 1.576000000 _0_ RTR  --- 75 cbr 1000 [0 0 0 0] ------- [0:0 2:0 32 0] [72] 0 0
D 1.576000000 _0_ RTR  IFQ 70 cbr 1020 [0 0 0 0] ------- [0:0 2:0 32 0] [67] 0 0
s 1.584000000 _0_ AGT  --- 76 cbr 1000 [0 0 0 0] ------- [0:0 2:0 32 0] [73] 0 0
r 1.584000000 _0_ RTR  --- 76 cbr 1000 [0 0 0 0] ------- [0:0 2:0 32 0] [73] 0 0
D 1.584000000 _0_ RTR  IFQ 71 cbr 1020 [0 0 0 0] ------- [0:0 2:0 32 0] [68] 0 0
s 1.592000000 _0_ AGT  --- 77 cbr 1000 [0 0 0 0] ------- [0:0 2:0 32 0] [74] 0 0
r 1.592000000 _0_ RTR  --- 77 cbr 1000 [0 0 0 0] ------- [0:0 2:0 32 0] [74] 0 0
D 1.592000000 _0_ RTR  IFQ 72 cbr 1020 [0 0 0 0] ------- [0:0 2:0 32 0] [69] 0 0
s 1.600000000 _0_ AGT  --- 78 cbr 1000 [0 0 0 0] ------- [0:0 2:0 32 0] [75] 0 0
r 1.600000000 _0_ RTR  --- 78 cbr 1000 [0 0 0 0] ------- [0:0 2:0 32 0] [75] 0 0
D 1.600000000 _0_ RTR  IFQ 73 cbr 1020 [0 0 0 0] ------- [0:0 2:0 32 0] [70] 0 0
s 1.608000000 _0_ AGT  --- 79 cbr 1000 [0 0 0 0] ------- [0:0 2:0 32 0] [76] 0 0
r 1.608000000 _0_ RTR  --- 79 cbr 1000 [0 0 0 0] ------- [0:0 2:0 32 0] [76] 0 0
D 1.608000000 _0_ RTR  IFQ 74 cbr 1020 [0 0 0 0] ------- [0:0 2:0 32 0] [71] 0 0
s 1.616000000 _0_ AGT  --- 80 cbr 1000 [0 0 0 0] ------- [0:0 2:0 32 0] [77] 0 0
r 1.616000000 _0_ RTR  --- 80 cbr 1000 [0 0 0 0] ------- [0:0 2:0 32 0] [77] 0 0
D 1.616000000 _0_ RTR  IFQ 75 cbr 1020 [0 0 0 0] ------- [0:0 2:0 32 0] [72] 0 0
s 1.624000000 _0_ AGT  --- 81 cbr 1000 [0 0 0 0] ------- [0:0 2:0 32 0] [78] 0 0
r 1.624000000 _0_ RTR  --- 81 cbr 1000 [0 0 0 0] ------- [0:0 2:0 32 0] [78] 0 0
D 1.624000000 _0_ RTR  IFQ 76 cbr 1020 [0 0 0 0] ------- [0:0 2:0 32 0] [73] 0 0
s 1.632000000 _0_ AGT  --- 82 cbr 1000 [0 0 0 0] ------- [0:0 2:0 32 0] [79] 0 0
r 1.632000000 _0_ RTR  --- 82 cbr 1000 [0 0 0 0] ------- [0:0 2:0 32 0] [79] 0 0
D 1.632000000 _0_ RTR  IFQ 77 cbr 1020 [0 0 0 0] ------- [0:0 2:0 32 0] [74] 0 0
s 1.640000000 _0_ AGT  --- 83 cbr 1000 [0 0 0 0] ------- [0:0 2:0 32 0] [80] 0 0
r 1.640000000 _0_ RTR  --- 83 cbr 1000 [0 0 0 0] ------- [0:0 2:0 32 0] [80] 0 0
D 1.640000000 _0_ RTR  IFQ 78 cbr 1020 [0 0 0 0] ------- [0:0 2:0 32 0] [75] 0 0
s 1.648000000 _0_ AGT  --- 84 cbr 1000 [0 0 0 0] ------- [0:0 2:0 32 0] [81] 0 0
r 1.648000000 _0_ RTR  --- 84 cbr 1000 [0 0 0 0] ------- [0:0 2:0 32 0] [81] 0 0
D 1.648000000 _0_ RTR  IFQ 79 cbr 1020 [0 0 0 0] ------- [0:0 2:0 32 0] [76] 0 0
s 1.656000000 _0_ AGT  --- 85 cbr 1000 [0 0 0 0] ------- [0:0 2:0 32 0] [82] 0 0
r 1.656000000 _0_ RTR  --- 85 cbr 1000 [0 0 0 0] ------- [0:0 2:0 32 0] [82] 0 0
D 1.656000000 _0_ RTR  IFQ 80 cbr 1020 [0 0 0 0] ------- [0:0 2:0 32 0] [77] 0 0
s 1.664000000 _0_ AGT  --- 86 cbr 1000 [0 0 0 0] ------- [0:0 2:0 32 0] [83] 0 0
r 1.664000000 _0_ RTR  --- 86 cbr 1000 [0 0 0 0] ------- [0:0 2:0 32 0] [83] 0 0
D 1.664000000 _0_ RTR  IFQ 81 cbr 1020 [0 0 0 0] ------- [0:0 2:0 32 0] [78] 0 0
s 1.672000000 _0_ AGT  --- 87 cbr 1000 [0 0 0 0] ------- [0:0 2:0 32 0] [84] 0 0
r 1.672000000 _0_ RTR  --- 87 cbr 1000 [0 0 0 0] ------- [0:0 2:0 32 0] [84] 0 0
D 1.672000000 _0_ RTR  IFQ 82 cbr 1020 [0 0 0 0] ------- [0:0 2:0 32 0] [79] 0 0
s 1.680000000 _0_ AGT  --- 88 cbr 1000 [0 0 0 0] ------- [0:0 2:0 32 0] [85] 0 0
r 1.680000000 _0_ RTR  --- 88 cbr 1000 [0 0 0 0] ------- [0:0 2:0 32 0] [85] 0 0
D 1.680000000 _0_ RTR  IFQ 83 cbr 1020 [0 0 0 0] ------- [0:0 2:0 32 0] [80] 0 0
s 1.688000000 _0_ AGT  --- 89 cbr 1000 [0 0 0 0] ------- [0:0 2:0 32 0] [86] 0 0
r 1.688000000 _0_ RTR  --- 89 cbr 1000 [0 0 0 0] ------- [0:0 2:0 32 0] [86] 0 0
D 1.688000000 _0_ RTR  IFQ 84 cbr 1020 [0 0 0 0] ------- [0:0 2:0 32 0] [81] 0 0
s 1.696000000 _0_ AGT  --- 90 cbr 1000 [0 0 0 0] ------- [0:0 2:0 32 0] [87] 0 0
r 1.696000000 _0_ RTR  --- 90 cbr 1000 [0 0 0 0] ------- [0:0 2:0 32 0] [87] 0 0
D 1.696000000 _0_ RTR  IFQ 85 cbr 1020 [0 0 0 0] ------- [0:0 2:0 32 0] [82] 0 0
s 1.704000000 _0_ AGT  --- 91 cbr 1000 [0 0 0 0] ------- [0:0 2:0 32 0] [88] 0 0
r 1.704000000 _0_ RTR  --- 91 cbr 1000 [0 0 0 0] ------- [0:0 2:0 32 0] [88] 0 0
D 1.704000000 _0_ RTR  IFQ 86 cbr 1020 [0 0 0 0] ------- [0:0 2:0 32 0] [83] 0 0
s 1.712000000 _0_ AGT  --- 92 cbr 1000 [0 0 0 0] ------- [0:0 2:0 32 0] [89] 0 0
r 1.712000000 _0_ RTR  --- 92 cbr 1000 [0 0 0 0] ------- [0:0 2:0 32 0] [89] 0 0
D 1.712000000 _0_ RTR  IFQ 87 cbr 1020 [0 0 0 0] ------- [0:0 2:0 32 0] [84] 0 0
s 1.720000000 _0_ AGT  --- 93 cbr 1000 [0 0 0 0] ------- [0:0 2:0 32 0] [90] 0 0
r 1.720000000 _0_ RTR  --- 93 cbr 1000 [0 0 0 0] ------- [0:0 2:0 32 0] [90] 0 0
D 1.720000000 _0_ RTR  IFQ 88 cbr 1020 [0 0 0 0] ------- [0:0 2:0 32 0] [85] 0 0
s 1.728000000 _0_ AGT  --- 94 cbr 1000 [0 0 0 0] ------- [0:0 2:0 32 0] [91] 0 0
r 1.728000000 _0_ RTR  --- 94 cbr 1000 [0 0 0 0] ------- [0:0 2:0 32 0] [91] 0 0
D 1.728000000 _0_ RTR  IFQ 89 cbr 1020 [0 0 0 0] ------- [0:0 2:0 32 0] [86] 0 0
s 1.736000000 _0_ AGT  --- 95 cbr 1000 [0 0 0 0] ------- [0:0 2:0 32 0] [92] 0 0
r 1.736000000 _0_ RTR  --- 95 cbr 1000 [0 0 0 0] ------- [0:0 2:0 32 0] [92] 0 0
D 1.736000000 _0_ RTR  IFQ 90 cbr 1020 [0 0 0 0] ------- [0:0 2:0 32 0] [87] 0 0
s 1.744000000 _0_ AGT  --- 96 cbr 1000 [0 0 0 0] ------- [0:0 2:0 32 0] [93] 0 0
r 1.744000000 _0_ RTR  --- 96 cbr 1000 [0 0 0 0] ------- [0:0 2:0 32 0] [93] 0 0
D 1.744000000 _0_ RTR  IFQ 91 cbr 1020 [0 0 0 0] ------- [0:0 2:0 32 0] [88] 0 0
s 1.752000000 _0_ AGT  --- 97 cbr 1000 [0 0 0 0] ------- [0:0 2:0 32 0] [94] 0 0
r 1.752000000 _0_ RTR  --- 97 cbr 1000 [0 0 0 0] ------- [0:0 2:0 32 0] [94] 0 0
D 1.752000000 _0_ RTR  IFQ 92 cbr 1020 [0 0 0 0] ------- [0:0 2:0 32 0] [89] 0 0
s 1.760000000 _0_ AGT  --- 98 cbr 1000 [0 0 0 0] ------- [0:0 2:0 32 0] [95] 0 0
r 1.760000000 _0_ RTR  --- 98 cbr 1000 [0 0 0 0] ------- [0:0 2:0 32 0] [95] 0 0
D 1.760000000 _0_ RTR  IFQ 93 cbr 1020 [0 0 0 0] ------- [0:0 2:0 32 0] [90] 0 0
s 1.768000000 _0_ AGT  --- 99 cbr 1000 [0 0 0 0] ------- [0:0 2:0 32 0] [96] 0 0
r 1.768000000 _0_ RTR  --- 99 cbr 1000 [0 0 0 0] ------- [0:0 2:0 32 0] [96] 0 0
D 1.768000000 _0_ RTR  IFQ 94 cbr 1020 [0 0 0 0] ------- [0:0 2:0 32 0] [91] 0 0
s 1.776000000 _0_ AGT  --- 100 cbr 1000 [0 0 0 0] ------- [0:0 2:0 32 0] [97] 0 0
r 1.776000000 _0_ RTR  --- 100 cbr 1000 [0 0 0 0] ------- [0:0 2:0 32 0] [97] 0 0
D 1.776000000 _0_ RTR  IFQ 95 cbr 1020 [0 0 0 0] ------- [0:0 2:0 32 0] [92] 0 0
s 1.784000000 _0_ AGT  --- 101 cbr 1000 [0 0 0 0] ------- [0:0 2:0 32 0] [98] 0 0
r 1.784000000 _0_ RTR  --- 101 cbr 1000 [0 0 0 0] ------- [0:0 2:0 32 0] [98] 0 0
D 1.784000000 _0_ RTR  IFQ 96 cbr 1020 [0 0 0 0] ------- [0:0 2:0 32 0] [93] 0 0
s 1.792000000 _0_ AGT  --- 102 cbr 1000 [0 0 0 0] ------- [0:0 2:0 32 0] [99] 0 0
r 1.792000000 _0_ RTR  --- 102 cbr 1000 [0 0 0 0] ------- [0:0 2:0 32 0] [99] 0 0
D 1.792000000 _0_ RTR  IFQ 97 cbr 1020 [0 0 0 0] ------- [0:0 2:0 32 0] [94] 0 0
s 1.800000000 _0_ AGT  --- 103 cbr 1000 [0 0 0 0] ------- [0:0 2:0 32 0] [100] 0 0
r 1.800000000 _0_ RTR  --- 103 cbr 1000 [0 0 0 0] ------- [0:0 2:0 32 0] [100] 0 0
D 1.800000000 _0_ RTR  IFQ 98 cbr 1020 [0 0 0 0] ------- [0:0 2:0 32 0] [95] 0 0
s 1.808000000 _0_ AGT  --- 104 cbr 1000 [0 0 0 0] ------- [0:0 2:0 32 0] [101] 0 0
r 1.808000000 _0_ RTR  --- 104 cbr 1000 [0 0 0 0] ------- [0:0 2:0 32 0] [101] 0 0
D 1.808000000 _0_ RTR  IFQ 99 cbr 1020 [0 0 0 0] ------- [0:0 2:0 32 0] [96] 0 0
s 1.816000000 _0_ AGT  --- 105 cbr 1000 [0 0 0 0] ------- [0:0 2:0 32 0] [102] 0 0
r 1.816000000 _0_ RTR  --- 105 cbr 1000 [0 0 0 0] ------- [0:0 2:0 32 0] [102] 0 0
D 1.816000000 _0_ RTR  IFQ 100 cbr 1020 [0 0 0 0] ------- [0:0 2:0 32 0] [97] 0 0
s 1.824000000 _0_ AGT  --- 106 cbr 1000 [0 0 0 0] ------- [0:0 2:0 32 0] [103] 0 0
r 1.824000000 _0_ RTR  --- 106 cbr 1000 [0 0 0 0] ------- [0:0 2:0 32 0] [103] 0 0
D 1.824000000 _0_ RTR  IFQ 101 cbr 1020 [0 0 0 0] ------- [0:0 2:0 32 0] [98] 0 0
s 1.832000000 _0_ AGT  --- 107 cbr 1000 [0 0 0 0] ------- [0:0 2:0 32 0] [104] 0 0
r 1.832000000 _0_ RTR  --- 107 cbr 1000 [0 0 0 0] ------- [0:0 2:0 32 0] [104] 0 0
D 1.832000000 _0_ RTR  IFQ 102 cbr 1020 [0 0 0 0] ------- [0:0 2:0 32 0] [99] 0 0
s 1.840000000 _0_ AGT  --- 108 cbr 1000 [0 0 0 0] ------- [0:0 2:0 32 0] [105] 0 0
r 1.840000000 _0_ RTR  --- 108 cbr 1000 [0 0 0 0] ------- [0:0 2:0 32 0] [105] 0 0
D 1.840000000 _0_ RTR  IFQ 103 cbr 1020 [0 0 0 0] ------- [0:0 2:0 32 0] [100] 0 0
s 1.848000000 _0_ AGT  --- 109 cbr 1000 [0 0 0 0] ------- [0:0 2:0 32 0] [106] 0 0
r 1.848000000 _0_ RTR  --- 109 cbr 1000 [0 0 0 0] ------- [0:0 2:0 32 0] [106] 0 0
D 1.848000000 _0_ RTR  IFQ 104 cbr 1020 [0 0 0 0] ------- [0:0 2:0 32 0] [101] 0 0
s 1.856000000 _0_ AGT  --- 110 cbr 1000 [0 0 0 0] ------- [0:0 2:0 32 0] [107] 0 0
r 1.856000000 _0_ RTR  --- 110 cbr 1000 [0 0 0 0] ------- [0:0 2:0 32 0] [107] 0 0
D 1.856000000 _0_ RTR  IFQ 105 cbr 1020 [0 0 0 0] ------- [0:0 2:0 32 0] [102] 0 0
s 1.864000000 _0_ AGT  --- 111 cbr 1000 [0 0 0 0] ------- [0:0 2:0 32 0] [108] 0 0
r 1.864000000 _0_ RTR  --- 111 cbr 1000 [0 0 0 0] ------- [0:0 2:0 32 0] [108] 0 0
D 1.864000000 _0_ RTR  IFQ 106 cbr 1020 [0 0 0 0] ------- [0:0 2:0 32 0] [103] 0 0
s 1.872000000 _0_ AGT  --- 112 cbr 1000 [0 0 0 0] ------- [0:0 2:0 32 0] [109] 0 0
r 1.872000000 _0_ RTR  --- 112 cbr 1000 [0 0 0 0] ------- [0:0 2:0 32 0] [109] 0 0
D 1.872000000 _0_ RTR  IFQ 107 cbr 1020 [0 0 0 0] ------- [0:0 2:0 32 0] [104] 0 0
s 1.880000000 _0_ AGT  --- 113 cbr 1000 [0 0 0 0] ------- [0:0 2:0 32 0] [110] 0 0
r 1.880000000 _0_ RTR  --- 113 cbr 1000 [0 0 0 0] ------- [0:0 2:0 32 0] [110] 0 0
D 1.880000000 _0_ RTR  IFQ 108 cbr 1020 [0 0 0 0] ------- [0:0 2:0 32 0] [105] 0 0
s 1.888000000 _0_ AGT  --- 114 cbr 1000 [0 0 0 0] ------- [0:0 2:0 32 0] [111] 0 0
r 1.888000000 _0_ RTR  --- 114 cbr 1000 [0 0 0 0] ------- [0:0 2:0 32 0] [111] 0 0
D 1.888000000 _0_ RTR  IFQ 109 cbr 1020 [0 0 0 0] ------- [0:0 2:0 32 0] [106] 0 0
s 1.896000000 _0_ AGT  --- 115 cbr 1000 [0 0 0 0] ------- [0:0 2:0 32 0] [112] 0 0
r 1.896000000 _0_ RTR  --- 115 cbr 1000 [0 0 0 0] ------- [0:0 2:0 32 0] [112] 0 0
D 1.896000000 _0_ RTR  IFQ 110 cbr 1020 [0 0 0 0] ------- [0:0 2:0 32 0] [107] 0 0
s 1.904000000 _0_ AGT  --- 116 cbr 1000 [0 0 0 0] ------- [0:0 2:0 32 0] [113] 0 0
r 1.904000000 _0_ RTR  --- 116 cbr 1000 [0 0 0 0] ------- [0:0 2:0 32 0] [113] 0 0
D 1.904000000 _0_ RTR  IFQ 111 cbr 1020 [0 0 0 0] ------- [0:0 2:0 32 0] [108] 0 0
s 1.912000000 _0_ AGT  --- 117 cbr 1000 [0 0 0 0] ------- [0:0 2:0 32 0] [114] 0 0
r 1.912000000 _0_ RTR  --- 117 cbr 1000 [0 0 0 0] ------- [0:0 2:0 32 0] [114] 0 0
D 1.912000000 _0_ RTR  IFQ 112 cbr 1020 [0 0 0 0] ------- [0:0 2:0 32 0] [109] 0 0
s 1.920000000 _0_ AGT  --- 118 cbr 1000 [0 0 0 0] ------- [0:0 2:0 32 0] [115] 0 0
r 1.920000000 _0_ RTR  --- 118 cbr 1000 [0 0 0 0] ------- [0:0 2:0 32 0] [115] 0 0
D 1.920000000 _0_ RTR  IFQ 113 cbr 1020 [0 0 0 0] ------- [0:0 2:0 32 0] [110] 0 0
s 1.928000000 _0_ AGT  --- 119 cbr 1000 [0 0 0 0] ------- [0:0 2:0 32 0] [116] 0 0
r 1.928000000 _0_ RTR  --- 119 cbr 1000 [0 0 0 0] ------- [0:0 2:0 32 0] [116] 0 0
D 1.928000000 _0_ RTR  IFQ 114 cbr 1020 [0 0 0 0] ------- [0:0 2:0 32 0] [111] 0 0
s 1.936000000 _0_ AGT  --- 120 cbr 1000 [0 0 0 0] ------- [0:0 2:0 32 0] [117] 0 0
r 1.936000000 _0_ RTR  --- 120 cbr 1000 [0 0 0 0] ------- [0:0 2:0 32 0] [117] 0 0
D 1.936000000 _0_ RTR  IFQ 115 cbr 1020 [0 0 0 0] ------- [0:0 2:0 32 0] [112] 0 0
s 1.944000000 _0_ AGT  --- 121 cbr 1000 [0 0 0 0] ------- [0:0 2:0 32 0] [118] 0 0
r 1.944000000 _0_ RTR  --- 121 cbr 1000 [0 0 0 0] ------- [0:0 2:0 32 0] [118] 0 0
D 1.944000000 _0_ RTR  IFQ 116 cbr 1020 [0 0 0 0] ------- [0:0 2:0 32 0] [113] 0 0
s 1.952000000 _0_ AGT  --- 122 cbr 1000 [0 0 0 0] ------- [0:0 2:0 32 0] [119] 0 0
r 1.952000000 _0_ RTR  --- 122 cbr 1000 [0 0 0 0] ------- [0:0 2:0 32 0] [119] 0 0
D 1.952000000 _0_ RTR  IFQ 117 cbr 1020 [0 0 0 0] ------- [0:0 2:0 32 0] [114] 0 0
s 1.960000000 _0_ AGT  --- 123 cbr 1000 [0 0 0 0] ------- [0:0 2:0 32 0] [120] 0 0
r 1.960000000 _0_ RTR  --- 123 cbr 1000 [0 0 0 0] ------- [0:0 2:0 32 0] [120] 0 0
D 1.960000000 _0_ RTR  IFQ 118 cbr 1020 [0 0 0 0] ------- [0:0 2:0 32 0] [115] 0 0
s 1.968000000 _0_ AGT  --- 124 cbr 1000 [0 0 0 0] ------- [0:0 2:0 32 0] [121] 0 0
r 1.968000000 _0_ RTR  --- 124 cbr 1000 [0 0 0 0] ------- [0:0 2:0 32 0] [121] 0 0
D 1.968000000 _0_ RTR  IFQ 119 cbr 1020 [0 0 0 0] ------- [0:0 2:0 32 0] [116] 0 0