n -t 0 -s 0 -S DLABEL -l "UDP" -L ""
n -t 0 -s 4 -S DLABEL -l "DEST_UDP" -L ""
n -t 0 -s 3 -S DLABEL -l "ERROR NODE " -L ""
V -t * -v 1.0a5 -a 0
A -t * -n 1 -p 0 -o 0xffffffff -c 31 -a 1
A -t * -h 1 -m 2147483647 -s 0
c -t * -i 1 -n Blue
c -t * -i 2 -n Red
n -t * -a 4 -s 4 -S UP -v circle -c black -i black
n -t * -a 0 -s 0 -S UP -v circle -c black -i black
n -t * -a 5 -s 5 -S UP -v circle -c black -i black
n -t * -a 1 -s 1 -S UP -v circle -c black -i black
n -t * -a 2 -s 2 -S UP -v circle -c black -i black
n -t * -a 3 -s 3 -S UP -v circle -c black -i black
l -t * -s 0 -d 2 -S UP -r 2000000 -D 0.01 -c black -o right-down
l -t * -s 1 -d 2 -S UP -r 2000000 -D 0.01 -c black -o right-up
l -t * -s 2 -d 3 -S UP -r 200000 -D 0.10000000000000001 -c black -o right
X -t * -n 6 -r 0.5Mb -D 40ms -o left
L -t * -s 6 -d 3 -o up
L -t * -s 6 -d 4 -o down
L -t * -s 6 -d 5 -o up
+ -t 0.04 -s 0 -d 2 -p cbr -e 1000 -c 1 -i 0 -a 1 -x {0.0 4.0 0 ------- null}
- -t 0.04 -s 0 -d 2 -p cbr -e 1000 -c 1 -i 0 -a 1 -x {0.0 4.0 0 ------- null}
h -t 0.04 -s 0 -d 2 -p cbr -e 1000 -c 1 -i 0 -a 1 -x {0.0 4.0 -1 ------- null}
+ -t 0.04 -s 0 -d 2 -p cbr -e 1000 -c 1 -i 1 -a 1 -x {0.0 4.0 1 ------- null}
+ -t 0.04 -s 0 -d 2 -p cbr -e 1000 -c 1 -i 2 -a 1 -x {0.0 4.0 2 ------- null}
+ -t 0.04 -s 0 -d 2 -p cbr -e 1000 -c 1 -i 3 -a 1 -x {0.0 4.0 3 ------- null}
- -t 0.044 -s 0 -d 2 -p cbr -e 1000 -c 1 -i 1 -a 1 -x {0.0 4.0 1 ------- null}
h -t 0.044 -s 0 -d 2 -p cbr -e 1000 -c 1 -i 1 -a 1 -x {0.0 4.0 -1 ------- null}
- -t 0.048 -s 0 -d 2 -p cbr -e 1000 -c 1 -i 2 -a 1 -x {0.0 4.0 2 ------- null}
h -t 0.048 -s 0 -d 2 -p cbr -e 1000 -c 1 -i 2 -a 1 -x {0.0 4.0 -1 ------- null}
- -t 0.052 -s 0 -d 2 -p cbr -e 1000 -c 1 -i 3 -a 1 -x {0.0 4.0 3 ------- null}
h -t 0.052 -s 0 -d 2 -p cbr -e 1000 -c 1 -i 3 -a 1 -x {0.0 4.0 -1 ------- null}
r -t 0.054 -s 0 -d 2 -p cbr -e 1000 -c 1 -i 0 -a 1 -x {0.0 4.0 0 ------- null}
d -t 0.054 -s 2 -d 3 -p cbr -e 1000 -c 1 -i 0 -a 1 -x {0.0 4.0 0 ------- null}
r -t 0.058 -s 0 -d 2 -p cbr -e 1000 -c 1 -i 1 -a 1 -x {0.0 4.0 1 ------- null}
+ -t 0.058 -s 2 -d 3 -p cbr -e 1000 -c 1 -i 1 -a 1 -x {0.0 4.0 1 ------- null}
- -t 0.058 -s 2 -d 3 -p cbr -e 1000 -c 1 -i 1 -a 1 -x {0.0 4.0 1 ------- null}
h -t 0.058 -s 2 -d 3 -p cbr -e 1000 -c 1 -i 1 -a 1 -x {0.0 4.0 -1 ------- null}
r -t 0.062 -s 0 -d 2 -p cbr -e 1000 -c 1 -i 2 -a 1 -x {0.0 4.0 2 ------- null}
d -t 0.062 -s 2 -d 3 -p cbr -e 1000 -c 1 -i 2 -a 1 -x {0.0 4.0 2 ------- null}
r -t 0.066 -s 0 -d 2 -p cbr -e 1000 -c 1 -i 3 -a 1 -x {0.0 4.0 3 ------- null}
d -t 0.066 -s 2 -d 3 -p cbr -e 1000 -c 1 -i 3 -a 1 -x {0.0 4.0 3 ------- null}
+ -t 0.08 -s 0 -d 2 -p cbr -e 1000 -c 1 -i 4 -a 1 -x {0.0 4.0 4 ------- null}
- -t 0.08 -s 0 -d 2 -p cbr -e 1000 -c 1 -i 4 -a 1 -x {0.0 4.0 4 ------- null}
h -t 0.08 -s 0 -d 2 -p cbr -e 1000 -c 1 -i 4 -a 1 -x {0.0 4.0 -1 ------- null}
+ -t 0.08 -s 0 -d 2 -p cbr -e 1000 -c 1 -i 5 -a 1 -x {0.0 4.0 5 ------- null}
+ -t 0.08 -s 0 -d 2 -p cbr -e 1000 -c 1 -i 6 -a 1 -x {0.0 4.0 6 ------- null}
+ -t 0.08 -s 0 -d 2 -p cbr -e 1000 -c 1 -i 7 -a 1 -x {0.0 4.0 7 ------- null}
- -t 0.084 -s 0 -d 2 -p cbr -e 1000 -c 1 -i 5 -a 1 -x {0.0 4.0 5 ------- null}
h -t 0.084 -s 0 -d 2 -p cbr -e 1000 -c 1 -i 5 -a 1 -x {0.0 4.0 -1 ------- null}
- -t 0.088 -s 0 -d 2 -p cbr -e 1000 -c 1 -i 6 -a 1 -x {0.0 4.0 6 ------- null}
h -t 0.088 -s 0 -d 2 -p cbr -e 1000 -c 1 -i 6 -a 1 -x {0.0 4.0 -1 ------- null}
- -t 0.092 -s 0 -d 2 -p cbr -e 1000 -c 1 -i 7 -a 1 -x {0.0 4.0 7 ------- null}
h -t 0.092 -s 0 -d 2 -p cbr -e 1000 -c 1 -i 7 -a 1 -x {0.0 4.0 -1 ------- null}
r -t 0.094 -s 0 -d 2 -p cbr -e 1000 -c 1 -i 4 -a 1 -x {0.0 4.0 4 ------- null}
+ -t 0.094 -s 2 -d 3 -p cbr -e 1000 -c 1 -i 4 -a 1 -x {0.0 4.0 4 ------- null}
- -t 0.098 -s 2 -d 3 -p cbr -e 1000 -c 1 -i 4 -a 1 -x {0.0 4.0 4 ------- null}
h -t 0.098 -s 2 -d 3 -p cbr -e 1000 -c 1 -i 4 -a 1 -x {0.0 4.0 -1 ------- null}
r -t 0.098 -s 0 -d 2 -p cbr -e 1000 -c 1 -i 5 -a 1 -x {0.0 4.0 5 ------- null}
+ -t 0.098 -s 2 -d 3 -p cbr -e 1000 -c 1 -i 5 -a 1 -x {0.0 4.0 5 ------- null}
r -t 0.102 -s 0 -d 2 -p cbr -e 1000 -c 1 -i 6 -a 1 -x {0.0 4.0 6 ------- null}
+ -t 0.102 -s 2 -d 3 -p cbr -e 1000 -c 1 -i 6 -a 1 -x {0.0 4.0 6 ------- null}
r -t 0.106 -s 0 -d 2 -p cbr -e 1000 -c 1 -i 7 -a 1 -x {0.0 4.0 7 ------- null}
+ -t 0.106 -s 2 -d 3 -p cbr -e 1000 -c 1 -i 7 -a 1 -x {0.0 4.0 7 ------- null}
+ -t 0.12 -s 0 -d 2 -p cbr -e 1000 -c 1 -i 8 -a 1 -x {0.0 4.0 8 ------- null}
- -t 0.12 -s 0 -d 2 -p cbr -e 1000 -c 1 -i 8 -a 1 -x {0.0 4.0 8 ------- null}
h -t 0.12 -s 0 -d 2 -p cbr -e 1000 -c 1 -i 8 -a 1 -x {0.0 4.0 -1 ------- null}
+ -t 0.12 -s 0 -d 2 -p cbr -e 1000 -c 1 -i 9 -a 1 -x {0.0 4.0 9 ------- null}
+ -t 0.12 -s 0 -d 2 -p cbr -e 1000 -c 1 -i 10 -a 1 -x {0.0 4.0 10 ------- null}
+ -t 0.12 -s 0 -d 2 -p cbr -e 1000 -c 1 -i 11 -a 1 -x {0.0 4.0 11 ------- null}
- -t 0.124 -s 0 -d 2 -p cbr -e 1000 -c 1 -i 9 -a 1 -x {0.0 4.0 9 ------- null}
h -t 0.124 -s 0 -d 2 -p cbr -e 1000 -c 1 -i 9 -a 1 -x {0.0 4.0 -1 ------- null}
- -t 0.128 -s 0 -d 2 -p cbr -e 1000 -c 1 -i 10 -a 1 -x {0.0 4.0 10 ------- null}
h -t 0.128 -s 0 -d 2 -p cbr -e 1000 -c 1 -i 10 -a 1 -x {0.0 4.0 -1 ------- null}
- -t 0.132 -s 0 -d 2 -p cbr -e 1000 -c 1 -i 11 -a 1 -x {0.0 4.0 11 ------- null}
h -t 0.132 -s 0 -d 2 -p cbr -e 1000 -c 1 -i 11 -a 1 -x {0.0 4.0 -1 ------- null}
r -t 0.134 -s 0 -d 2 -p cbr -e 1000 -c 1 -i 8 -a 1 -x {0.0 4.0 8 ------- null}
+ -t 0.134 -s 2 -d 3 -p cbr -e 1000 -c 1 -i 8 -a 1 -x {0.0 4.0 8 ------- null}
- -t 0.138 -s 2 -d 3 -p cbr -e 1000 -c 1 -i 5 -a 1 -x {0.0 4.0 5 ------- null}
h -t 0.138 -s 2 -d 3 -p cbr -e 1000 -c 1 -i 5 -a 1 -x {0.0 4.0 -1 ------- null}
r -t 0.138 -s 0 -d 2 -p cbr -e 1000 -c 1 -i 9 -a 1 -x {0.0 4.0 9 ------- null}
+ -t 0.138 -s 2 -d 3 -p cbr -e 1000 -c 1 -i 9 -a 1 -x {0.0 4.0 9 ------- null}
r -t 0.142 -s 0 -d 2 -p cbr -e 1000 -c 1 -i 10 -a 1 -x {0.0 4.0 10 ------- null}
+ -t 0.142 -s 2 -d 3 -p cbr -e 1000 -c 1 -i 10 -a 1 -x {0.0 4.0 10 ------- null}
r -t 0.146 -s 0 -d 2 -p cbr -e 1000 -c 1 -i 11 -a 1 -x {0.0 4.0 11 ------- null}
+ -t 0.146 -s 2 -d 3 -p cbr -e 1000 -c 1 -i 11 -a 1 -x {0.0 4.0 11 ------- null}
+ -t 0.16 -s 0 -d 2 -p cbr -e 1000 -c 1 -i 12 -a 1 -x {0.0 4.0 12 ------- null}
- -t 0.16 -s 0 -d 2 -p cbr -e 1000 -c 1 -i 12 -a 1 -x {0.0 4.0 12 ------- null}
h -t 0.16 -s 0 -d 2 -p cbr -e 1000 -c 1 -i 12 -a 1 -x {0.0 4.0 -1 ------- null}
+ -t 0.16 -s 0 -d 2 -p cbr -e 1000 -c 1 -i 13 -a 1 -x {0.0 4.0 13 ------- null}
+ -t 0.16 -s 0 -d 2 -p cbr -e 1000 -c 1 -i 14 -a 1 -x {0.0 4.0 14 ------- null}
+ -t 0.16 -s 0 -d 2 -p cbr -e 1000 -c 1 -i 15 -a 1 -x {0.0 4.0 15 ------- null}
- -t 0.164 -s 0 -d 2 -p cbr -e 1000 -c 1 -i 13 -a 1 -x {0.0 4.0 13 ------- null}
h -t 0.164 -s 0 -d 2 -p cbr -e 1000 -c 1 -i 13 -a 1 -x {0.0 4.0 -1 ------- null}
- -t 0.168 -s 0 -d 2 -p cbr -e 1000 -c 1 -i 14 -a 1 -x {0.0 4.0 14 ------- null}
h -t 0.168 -s 0 -d 2 -p cbr -e 1000 -c 1 -i 14 -a 1 -x {0.0 4.0 -1 ------- null}
- -t 0.172 -s 0 -d 2 -p cbr -e 1000 -c 1 -i 15 -a 1 -x {0.0 4.0 15 ------- null}
h -t 0.172 -s 0 -d 2 -p cbr -e 1000 -c 1 -i 15 -a 1 -x {0.0 4.0 -1 ------- null}
r -t 0.174 -s 0 -d 2 -p cbr -e 1000 -c 1 -i 12 -a 1 -x {0.0 4.0 12 ------- null}
+ -t 0.174 -s 2 -d 3 -p cbr -e 1000 -c 1 -i 12 -a 1 -x {0.0 4.0 12 ------- null}
- -t 0.178 -s 2 -d 3 -p cbr -e 1000 -c 1 -i 6 -a 1 -x {0.0 4.0 6 ------- null}
h -t 0.178 -s 2 -d 3 -p cbr -e 1000 -c 1 -i 6 -a 1 -x {0.0 4.0 -1 ------- null}
r -t 0.178 -s 0 -d 2 -p cbr -e 1000 -c 1 -i 13 -a 1 -x {0.0 4.0 13 ------- null}
d -t 0.178 -s 2 -d 3 -p cbr -e 1000 -c 1 -i 13 -a 1 -x {0.0 4.0 13 ------- null}
r -t 0.182 -s 0 -d 2 -p cbr -e 1000 -c 1 -i 14 -a 1 -x {0.0 4.0 14 ------- null}
+ -t 0.182 -s 2 -d 3 -p cbr -e 1000 -c 1 -i 14 -a 1 -x {0.0 4.0 14 ------- null}
r -t 0.186 -s 0 -d 2 -p cbr -e 1000 -c 1 -i 15 -a 1 -x {0.0 4.0 15 ------- null}
+ -t 0.186 -s 2 -d 3 -p cbr -e 1000 -c 1 -i 15 -a 1 -x {0.0 4.0 15 ------- null}
r -t 0.198 -s 2 -d 3 -p cbr -e 1000 -c 1 -i 1 -a 1 -x {0.0 4.0 1 ------- null}
h -t 0.198 -s 3 -d 6 -p cbr -e 1000 -c 1 -i 1 -a 1 -x {0.0 4.0 1 ------- null}
+ -t 0.2 -s 0 -d 2 -p cbr -e 1000 -c 1 -i 16 -a 1 -x {0.0 4.0 16 ------- null}
- -t 0.2 -s 0 -d 2 -p cbr -e 1000 -c 1 -i 16 -a 1 -x {0.0 4.0 16 ------- null}
h -t 0.2 -s 0 -d 2 -p cbr -e 1000 -c 1 -i 16 -a 1 -x {0.0 4.0 -1 ------- null}
+ -t 0.2 -s 0 -d 2 -p cbr -e 1000 -c 1 -i 17 -a 1 -x {0.0 4.0 17 ------- null}
+ -t 0.2 -s 0 -d 2 -p cbr -e 1000 -c 1 -i 18 -a 1 -x {0.0 4.0 18 ------- null}
+ -t 0.2 -s 0 -d 2 -p cbr -e 1000 -c 1 -i 19 -a 1 -x {0.0 4.0 19 ------- null}
- -t 0.204 -s 0 -d 2 -p cbr -e 1000 -c 1 -i 17 -a 1 -x {0.0 4.0 17 ------- null}
h -t 0.204 -s 0 -d 2 -p cbr -e 1000 -c 1 -i 17 -a 1 -x {0.0 4.0 -1 ------- null}
- -t 0.208 -s 0 -d 2 -p cbr -e 1000 -c 1 -i 18 -a 1 -x {0.0 4.0 18 ------- null}
h -t 0.208 -s 0 -d 2 -p cbr -e 1000 -c 1 -i 18 -a 1 -x {0.0 4.0 -1 ------- null}
- -t 0.212 -s 0 -d 2 -p cbr -e 1000 -c 1 -i 19 -a 1 -x {0.0 4.0 19 ------- null}
h -t 0.212 -s 0 -d 2 -p cbr -e 1000 -c 1 -i 19 -a 1 -x {0.0 4.0 -1 ------- null}
r -t 0.214 -s 0 -d 2 -p cbr -e 1000 -c 1 -i 16 -a 1 -x {0.0 4.0 16 ------- null}
+ -t 0.214 -s 2 -d 3 -p cbr -e 1000 -c 1 -i 16 -a 1 -x {0.0 4.0 16 ------- null}
- -t 0.218 -s 2 -d 3 -p cbr -e 1000 -c 1 -i 7 -a 1 -x {0.0 4.0 7 ------- null}
h -t 0.218 -s 2 -d 3 -p cbr -e 1000 -c 1 -i 7 -a 1 -x {0.0 4.0 -1 ------- null}
r -t 0.218 -s 0 -d 2 -p cbr -e 1000 -c 1 -i 17 -a 1 -x {0.0 4.0 17 ------- null}
+ -t 0.218 -s 2 -d 3 -p cbr -e 1000 -c 1 -i 17 -a 1 -x {0.0 4.0 17 ------- null}
r -t 0.222 -s 0 -d 2 -p cbr -e 1000 -c 1 -i 18 -a 1 -x {0.0 4.0 18 ------- null}
+ -t 0.222 -s 2 -d 3 -p cbr -e 1000 -c 1 -i 18 -a 1 -x {0.0 4.0 18 ------- null}
d -t 0.222 -s 2 -d 3 -p cbr -e 1000 -c 1 -i 18 -a 1 -x {0.0 4.0 18 ------- null}
r -t 0.226 -s 0 -d 2 -p cbr -e 1000 -c 1 -i 19 -a 1 -x {0.0 4.0 19 ------- null}
d -t 0.226 -s 2 -d 3 -p cbr -e 1000 -c 1 -i 19 -a 1 -x {0.0 4.0 19 ------- null}
r -t 0.238 -s 2 -d 3 -p cbr -e 1000 -c 1 -i 4 -a 1 -x {0.0 4.0 4 ------- null}
h -t 0.238 -s 3 -d 6 -p cbr -e 1000 -c 1 -i 4 -a 1 -x {0.0 4.0 4 ------- null}
+ -t 0.238 -s 3 -d 6 -p cbr -e 1000 -c 1 -i 1 -a 1 -x {0.0 4.0 1 ------- null}
- -t 0.238 -s 3 -d 6 -p cbr -e 1000 -c 1 -i 1 -a 1 -x {0.0 4.0 1 ------- null}
h -t 0.238 -s 3 -d 6 -p cbr -e 1000 -c 1 -i 1 -a 1 -x {0.0 4.0 -1 ------- null}
+ -t 0.24 -s 0 -d 2 -p cbr -e 1000 -c 1 -i 20 -a 1 -x {0.0 4.0 20 ------- null}
- -t 0.24 -s 0 -d 2 -p cbr -e 1000 -c 1 -i 20 -a 1 -x {0.0 4.0 20 ------- null}
h -t 0.24 -s 0 -d 2 -p cbr -e 1000 -c 1 -i 20 -a 1 -x {0.0 4.0 -1 ------- null}
+ -t 0.24 -s 0 -d 2 -p cbr -e 1000 -c 1 -i 21 -a 1 -x {0.0 4.0 21 ------- null}
+ -t 0.24 -s 0 -d 2 -p cbr -e 1000 -c 1 -i 22 -a 1 -x {0.0 4.0 22 ------- null}
+ -t 0.24 -s 0 -d 2 -p cbr -e 1000 -c 1 -i 23 -a 1 -x {0.0 4.0 23 ------- null}
- -t 0.244 -s 0 -d 2 -p cbr -e 1000 -c 1 -i 21 -a 1 -x {0.0 4.0 21 ------- null}
h -t 0.244 -s 0 -d 2 -p cbr -e 1000 -c 1 -i 21 -a 1 -x {0.0 4.0 -1 ------- null}
- -t 0.248 -s 0 -d 2 -p cbr -e 1000 -c 1 -i 22 -a 1 -x {0.0 4.0 22 ------- null}
h -t 0.248 -s 0 -d 2 -p cbr -e 1000 -c 1 -i 22 -a 1 -x {0.0 4.0 -1 ------- null}
- -t 0.252 -s 0 -d 2 -p cbr -e 1000 -c 1 -i 23 -a 1 -x {0.0 4.0 23 ------- null}
h -t 0.252 -s 0 -d 2 -p cbr -e 1000 -c 1 -i 23 -a 1 -x {0.0 4.0 -1 ------- null}
r -t 0.254 -s 0 -d 2 -p cbr -e 1000 -c 1 -i 20 -a 1 -x {0.0 4.0 20 ------- null}
+ -t 0.254 -s 2 -d 3 -p cbr -e 1000 -c 1 -i 20 -a 1 -x {0.0 4.0 20 ------- null}
d -t 0.254 -s 2 -d 3 -p cbr -e 1000 -c 1 -i 20 -a 1 -x {0.0 4.0 20 ------- null}
- -t 0.258 -s 2 -d 3 -p cbr -e 1000 -c 1 -i 8 -a 1 -x {0.0 4.0 8 ------- null}
h -t 0.258 -s 2 -d 3 -p cbr -e 1000 -c 1 -i 8 -a 1 -x {0.0 4.0 -1 ------- null}
r -t 0.258 -s 0 -d 2 -p cbr -e 1000 -c 1 -i 21 -a 1 -x {0.0 4.0 21 ------- null}
+ -t 0.258 -s 2 -d 3 -p cbr -e 1000 -c 1 -i 21 -a 1 -x {0.0 4.0 21 ------- null}
r -t 0.262 -s 0 -d 2 -p cbr -e 1000 -c 1 -i 22 -a 1 -x {0.0 4.0 22 ------- null}
+ -t 0.262 -s 2 -d 3 -p cbr -e 1000 -c 1 -i 22 -a 1 -x {0.0 4.0 22 ------- null}
d -t 0.262 -s 2 -d 3 -p cbr -e 1000 -c 1 -i 22 -a 1 -x {0.0 4.0 22 ------- null}
r -t 0.266 -s 0 -d 2 -p cbr -e 1000 -c 1 -i 23 -a 1 -x {0.0 4.0 23 ------- null}
+ -t 0.266 -s 2 -d 3 -p cbr -e 1000 -c 1 -i 23 -a 1 -x {0.0 4.0 23 ------- null}
d -t 0.266 -s 2 -d 3 -p cbr -e 1000 -c 1 -i 23 -a 1 -x {0.0 4.0 23 ------- null}
r -t 0.278 -s 2 -d 3 -p cbr -e 1000 -c 1 -i 5 -a 1 -x {0.0 4.0 5 ------- null}
h -t 0.278 -s 3 -d 6 -p cbr -e 1000 -c 1 -i 5 -a 1 -x {0.0 4.0 5 ------- null}
+ -t 0.278 -s 3 -d 6 -p cbr -e 1000 -c 1 -i 4 -a 1 -x {0.0 4.0 4 ------- null}
- -t 0.278 -s 3 -d 6 -p cbr -e 1000 -c 1 -i 4 -a 1 -x {0.0 4.0 4 ------- null}
h -t 0.278 -s 3 -d 6 -p cbr -e 1000 -c 1 -i 4 -a 1 -x {0.0 4.0 -1 ------- null}
+ -t 0.28 -s 0 -d 2 -p cbr -e 1000 -c 1 -i 24 -a 1 -x {0.0 4.0 24 ------- null}
- -t 0.28 -s 0 -d 2 -p cbr -e 1000 -c 1 -i 24 -a 1 -x {0.0 4.0 24 ------- null}
h -t 0.28 -s 0 -d 2 -p cbr -e 1000 -c 1 -i 24 -a 1 -x {0.0 4.0 -1 ------- null}
+ -t 0.28 -s 0 -d 2 -p cbr -e 1000 -c 1 -i 25 -a 1 -x {0.0 4.0 25 ------- null}
+ -t 0.28 -s 0 -d 2 -p cbr -e 1000 -c 1 -i 26 -a 1 -x {0.0 4.0 26 ------- null}
+ -t 0.28 -s 0 -d 2 -p cbr -e 1000 -c 1 -i 27 -a 1 -x {0.0 4.0 27 ------- null}
- -t 0.284 -s 0 -d 2 -p cbr -e 1000 -c 1 -i 25 -a 1 -x {0.0 4.0 25 ------- null}
h -t 0.284 -s 0 -d 2 -p cbr -e 1000 -c 1 -i 25 -a 1 -x {0.0 4.0 -1 ------- null}
- -t 0.288 -s 0 -d 2 -p cbr -e 1000 -c 1 -i 26 -a 1 -x {0.0 4.0 26 ------- null}
h -t 0.288 -s 0 -d 2 -p cbr -e 1000 -c 1 -i 26 -a 1 -x {0.0 4.0 -1 ------- null}
- -t 0.292 -s 0 -d 2 -p cbr -e 1000 -c 1 -i 27 -a 1 -x {0.0 4.0 27 ------- null}
h -t 0.292 -s 0 -d 2 -p cbr -e 1000 -c 1 -i 27 -a 1 -x {0.0 4.0 -1 ------- null}
r -t 0.294 -s 0 -d 2 -p cbr -e 1000 -c 1 -i 24 -a 1 -x {0.0 4.0 24 ------- null}
+ -t 0.294 -s 2 -d 3 -p cbr -e 1000 -c 1 -i 24 -a 1 -x {0.0 4.0 24 ------- null}
d -t 0.294 -s 2 -d 3 -p cbr -e 1000 -c 1 -i 24 -a 1 -x {0.0 4.0 24 ------- null}
r -t 0.294228 -s 6 -d 4 -p cbr -e 1000 -c 1 -i 1 -a 1 -x {0.0 4.0 1 ------- null}
- -t 0.298 -s 2 -d 3 -p cbr -e 1000 -c 1 -i 9 -a 1 -x {0.0 4.0 9 ------- null}
h -t 0.298 -s 2 -d 3 -p cbr -e 1000 -c 1 -i 9 -a 1 -x {0.0 4.0 -1 ------- null}
r -t 0.298 -s 0 -d 2 -p cbr -e 1000 -c 1 -i 25 -a 1 -x {0.0 4.0 25 ------- null}
+ -t 0.298 -s 2 -d 3 -p cbr -e 1000 -c 1 -i 25 -a 1 -x {0.0 4.0 25 ------- null}
r -t 0.302 -s 0 -d 2 -p cbr -e 1000 -c 1 -i 26 -a 1 -x {0.0 4.0 26 ------- null}
+ -t 0.302 -s 2 -d 3 -p cbr -e 1000 -c 1 -i 26 -a 1 -x {0.0 4.0 26 ------- null}
d -t 0.302 -s 2 -d 3 -p cbr -e 1000 -c 1 -i 26 -a 1 -x {0.0 4.0 26 ------- null}
r -t 0.306 -s 0 -d 2 -p cbr -e 1000 -c 1 -i 27 -a 1 -x {0.0 4.0 27 ------- null}
+ -t 0.306 -s 2 -d 3 -p cbr -e 1000 -c 1 -i 27 -a 1 -x {0.0 4.0 27 ------- null}
d -t 0.306 -s 2 -d 3 -p cbr -e 1000 -c 1 -i 27 -a 1 -x {0.0 4.0 27 ------- null}
+ -t 0.318 -s 3 -d 6 -p cbr -e 1000 -c 1 -i 5 -a 1 -x {0.0 4.0 5 ------- null}
- -t 0.318 -s 3 -d 6 -p cbr -e 1000 -c 1 -i 5 -a 1 -x {0.0 4.0 5 ------- null}
h -t 0.318 -s 3 -d 6 -p cbr -e 1000 -c 1 -i 5 -a 1 -x {0.0 4.0 -1 ------- null}
r -t 0.318 -s 2 -d 3 -p cbr -e 1000 -c 1 -i 6 -a 1 -x {0.0 4.0 6 ------- null}
h -t 0.318 -s 3 -d 6 -p cbr -e 1000 -c 1 -i 6 -a 1 -x {0.0 4.0 6 ------- null}
+ -t 0.32 -s 0 -d 2 -p cbr -e 1000 -c 1 -i 28 -a 1 -x {0.0 4.0 28 ------- null}
- -t 0.32 -s 0 -d 2 -p cbr -e 1000 -c 1 -i 28 -a 1 -x {0.0 4.0 28 ------- null}
h -t 0.32 -s 0 -d 2 -p cbr -e 1000 -c 1 -i 28 -a 1 -x {0.0 4.0 -1 ------- null}
+ -t 0.32 -s 0 -d 2 -p cbr -e 1000 -c 1 -i 29 -a 1 -x {0.0 4.0 29 ------- null}
+ -t 0.32 -s 0 -d 2 -p cbr -e 1000 -c 1 -i 30 -a 1 -x {0.0 4.0 30 ------- null}
+ -t 0.32 -s 0 -d 2 -p cbr -e 1000 -c 1 -i 31 -a 1 -x {0.0 4.0 31 ------- null}
- -t 0.324 -s 0 -d 2 -p cbr -e 1000 -c 1 -i 29 -a 1 -x {0.0 4.0 29 ------- null}
h -t 0.324 -s 0 -d 2 -p cbr -e 1000 -c 1 -i 29 -a 1 -x {0.0 4.0 -1 ------- null}
- -t 0.328 -s 0 -d 2 -p cbr -e 1000 -c 1 -i 30 -a 1 -x {0.0 4.0 30 ------- null}
h -t 0.328 -s 0 -d 2 -p cbr -e 1000 -c 1 -i 30 -a 1 -x {0.0 4.0 -1 ------- null}
- -t 0.332 -s 0 -d 2 -p cbr -e 1000 -c 1 -i 31 -a 1 -x {0.0 4.0 31 ------- null}
h -t 0.332 -s 0 -d 2 -p cbr -e 1000 -c 1 -i 31 -a 1 -x {0.0 4.0 -1 ------- null}
r -t 0.334 -s 0 -d 2 -p cbr -e 1000 -c 1 -i 28 -a 1 -x {0.0 4.0 28 ------- null}
+ -t 0.334 -s 2 -d 3 -p cbr -e 1000 -c 1 -i 28 -a 1 -x {0.0 4.0 28 ------- null}
d -t 0.334 -s 2 -d 3 -p cbr -e 1000 -c 1 -i 28 -a 1 -x {0.0 4.0 28 ------- null}
r -t 0.334228 -s 6 -d 4 -p cbr -e 1000 -c 1 -i 4 -a 1 -x {0.0 4.0 4 ------- null}
- -t 0.338 -s 2 -d 3 -p cbr -e 1000 -c 1 -i 10 -a 1 -x {0.0 4.0 10 ------- null}
h -t 0.338 -s 2 -d 3 -p cbr -e 1000 -c 1 -i 10 -a 1 -x {0.0 4.0 -1 ------- null}
r -t 0.338 -s 0 -d 2 -p cbr -e 1000 -c 1 -i 29 -a 1 -x {0.0 4.0 29 ------- null}
+ -t 0.338 -s 2 -d 3 -p cbr -e 1000 -c 1 -i 29 -a 1 -x {0.0 4.0 29 ------- null}
r -t 0.342 -s 0 -d 2 -p cbr -e 1000 -c 1 -i 30 -a 1 -x {0.0 4.0 30 ------- null}
+ -t 0.342 -s 2 -d 3 -p cbr -e 1000 -c 1 -i 30 -a 1 -x {0.0 4.0 30 ------- null}
d -t 0.342 -s 2 -d 3 -p cbr -e 1000 -c 1 -i 30 -a 1 -x {0.0 4.0 30 ------- null}
r -t 0.346 -s 0 -d 2 -p cbr -e 1000 -c 1 -i 31 -a 1 -x {0.0 4.0 31 ------- null}
+ -t 0.346 -s 2 -d 3 -p cbr -e 1000 -c 1 -i 31 -a 1 -x {0.0 4.0 31 ------- null}
d -t 0.346 -s 2 -d 3 -p cbr -e 1000 -c 1 -i 31 -a 1 -x {0.0 4.0 31 ------- null}
r -t 0.358 -s 2 -d 3 -p cbr -e 1000 -c 1 -i 7 -a 1 -x {0.0 4.0 7 ------- null}
h -t 0.358 -s 3 -d 6 -p cbr -e 1000 -c 1 -i 7 -a 1 -x {0.0 4.0 7 ------- null}
+ -t 0.358 -s 3 -d 6 -p cbr -e 1000 -c 1 -i 6 -a 1 -x {0.0 4.0 6 ------- null}
- -t 0.358 -s 3 -d 6 -p cbr -e 1000 -c 1 -i 6 -a 1 -x {0.0 4.0 6 ------- null}
h -t 0.358 -s 3 -d 6 -p cbr -e 1000 -c 1 -i 6 -a 1 -x {0.0 4.0 -1 ------- null}
+ -t 0.36 -s 0 -d 2 -p cbr -e 1000 -c 1 -i 32 -a 1 -x {0.0 4.0 32 ------- null}
- -t 0.36 -s 0 -d 2 -p cbr -e 1000 -c 1 -i 32 -a 1 -x {0.0 4.0 32 ------- null}
h -t 0.36 -s 0 -d 2 -p cbr -e 1000 -c 1 -i 32 -a 1 -x {0.0 4.0 -1 ------- null}
+ -t 0.36 -s 0 -d 2 -p cbr -e 1000 -c 1 -i 33 -a 1 -x {0.0 4.0 33 ------- null}
+ -t 0.36 -s 0 -d 2 -p cbr -e 1000 -c 1 -i 34 -a 1 -x {0.0 4.0 34 ------- null}
+ -t 0.36 -s 0 -d 2 -p cbr -e 1000 -c 1 -i 35 -a 1 -x {0.0 4.0 35 ------- null}
- -t 0.364 -s 0 -d 2 -p cbr -e 1000 -c 1 -i 33 -a 1 -x {0.0 4.0 33 ------- null}
h -t 0.364 -s 0 -d 2 -p cbr -e 1000 -c 1 -i 33 -a 1 -x {0.0 4.0 -1 ------- null}
- -t 0.368 -s 0 -d 2 -p cbr -e 1000 -c 1 -i 34 -a 1 -x {0.0 4.0 34 ------- null}
h -t 0.368 -s 0 -d 2 -p cbr -e 1000 -c 1 -i 34 -a 1 -x {0.0 4.0 -1 ------- null}
- -t 0.372 -s 0 -d 2 -p cbr -e 1000 -c 1 -i 35 -a 1 -x {0.0 4.0 35 ------- null}
h -t 0.372 -s 0 -d 2 -p cbr -e 1000 -c 1 -i 35 -a 1 -x {0.0 4.0 -1 ------- null}
r -t 0.374 -s 0 -d 2 -p cbr -e 1000 -c 1 -i 32 -a 1 -x {0.0 4.0 32 ------- null}
+ -t 0.374 -s 2 -d 3 -p cbr -e 1000 -c 1 -i 32 -a 1 -x {0.0 4.0 32 ------- null}
d -t 0.374 -s 2 -d 3 -p cbr -e 1000 -c 1 -i 32 -a 1 -x {0.0 4.0 32 ------- null}
r -t 0.374228 -s 6 -d 4 -p cbr -e 1000 -c 1 -i 5 -a 1 -x {0.0 4.0 5 ------- null}
- -t 0.378 -s 2 -d 3 -p cbr -e 1000 -c 1 -i 11 -a 1 -x {0.0 4.0 11 ------- null}
h -t 0.378 -s 2 -d 3 -p cbr -e 1000 -c 1 -i 11 -a 1 -x {0.0 4.0 -1 ------- null}
r -t 0.378 -s 0 -d 2 -p cbr -e 1000 -c 1 -i 33 -a 1 -x {0.0 4.0 33 ------- null}
+ -t 0.378 -s 2 -d 3 -p cbr -e 1000 -c 1 -i 33 -a 1 -x {0.0 4.0 33 ------- null}
r -t 0.382 -s 0 -d 2 -p cbr -e 1000 -c 1 -i 34 -a 1 -x {0.0 4.0 34 ------- null}
+ -t 0.382 -s 2 -d 3 -p cbr -e 1000 -c 1 -i 34 -a 1 -x {0.0 4.0 34 ------- null}
d -t 0.382 -s 2 -d 3 -p cbr -e 1000 -c 1 -i 34 -a 1 -x {0.0 4.0 34 ------- null}
r -t 0.386 -s 0 -d 2 -p cbr -e 1000 -c 1 -i 35 -a 1 -x {0.0 4.0 35 ------- null}
+ -t 0.386 -s 2 -d 3 -p cbr -e 1000 -c 1 -i 35 -a 1 -x {0.0 4.0 35 ------- null}
d -t 0.386 -s 2 -d 3 -p cbr -e 1000 -c 1 -i 35 -a 1 -x {0.0 4.0 35 ------- null}
r -t 0.398 -s 2 -d 3 -p cbr -e 1000 -c 1 -i 8 -a 1 -x {0.0 4.0 8 ------- null}
h -t 0.398 -s 3 -d 6 -p cbr -e 1000 -c 1 -i 8 -a 1 -x {0.0 4.0 8 ------- null}
+ -t 0.398 -s 3 -d 6 -p cbr -e 1000 -c 1 -i 7 -a 1 -x {0.0 4.0 7 ------- null}
- -t 0.398 -s 3 -d 6 -p cbr -e 1000 -c 1 -i 7 -a 1 -x {0.0 4.0 7 ------- null}
h -t 0.398 -s 3 -d 6 -p cbr -e 1000 -c 1 -i 7 -a 1 -x {0.0 4.0 -1 ------- null}
+ -t 0.4 -s 0 -d 2 -p cbr -e 1000 -c 1 -i 36 -a 1 -x {0.0 4.0 36 ------- null}
- -t 0.4 -s 0 -d 2 -p cbr -e 1000 -c 1 -i 36 -a 1 -x {0.0 4.0 36 ------- null}
h -t 0.4 -s 0 -d 2 -p cbr -e 1000 -c 1 -i 36 -a 1 -x {0.0 4.0 -1 ------- null}
+ -t 0.4 -s 0 -d 2 -p cbr -e 1000 -c 1 -i 37 -a 1 -x {0.0 4.0 37 ------- null}
+ -t 0.4 -s 0 -d 2 -p cbr -e 1000 -c 1 -i 38 -a 1 -x {0.0 4.0 38 ------- null}
+ -t 0.4 -s 0 -d 2 -p cbr -e 1000 -c 1 -i 39 -a 1 -x {0.0 4.0 39 ------- null}
- -t 0.404 -s 0 -d 2 -p cbr -e 1000 -c 1 -i 37 -a 1 -x {0.0 4.0 37 ------- null}
h -t 0.404 -s 0 -d 2 -p cbr -e 1000 -c 1 -i 37 -a 1 -x {0.0 4.0 -1 ------- null}
- -t 0.408 -s 0 -d 2 -p cbr -e 1000 -c 1 -i 38 -a 1 -x {0.0 4.0 38 ------- null}
h -t 0.408 -s 0 -d 2 -p cbr -e 1000 -c 1 -i 38 -a 1 -x {0.0 4.0 -1 ------- null}
- -t 0.412 -s 0 -d 2 -p cbr -e 1000 -c 1 -i 39 -a 1 -x {0.0 4.0 39 ------- null}
h -t 0.412 -s 0 -d 2 -p cbr -e 1000 -c 1 -i 39 -a 1 -x {0.0 4.0 -1 ------- null}
r -t 0.414 -s 0 -d 2 -p cbr -e 1000 -c 1 -i 36 -a 1 -x {0.0 4.0 36 ------- null}
+ -t 0.414 -s 2 -d 3 -p cbr -e 1000 -c 1 -i 36 -a 1 -x {0.0 4.0 36 ------- null}
d -t 0.414 -s 2 -d 3 -p cbr -e 1000 -c 1 -i 36 -a 1 -x {0.0 4.0 36 ------- null}
r -t 0.414228 -s 6 -d 4 -p cbr -e 1000 -c 1 -i 6 -a 1 -x {0.0 4.0 6 ------- null}
- -t 0.418 -s 2 -d 3 -p cbr -e 1000 -c 1 -i 12 -a 1 -x {0.0 4.0 12 ------- null}
h -t 0.418 -s 2 -d 3 -p cbr -e 1000 -c 1 -i 12 -a 1 -x {0.0 4.0 -1 ------- null}
r -t 0.418 -s 0 -d 2 -p cbr -e 1000 -c 1 -i 37 -a 1 -x {0.0 4.0 37 ------- null}
+ -t 0.418 -s 2 -d 3 -p cbr -e 1000 -c 1 -i 37 -a 1 -x {0.0 4.0 37 ------- null}
r -t 0.422 -s 0 -d 2 -p cbr -e 1000 -c 1 -i 38 -a 1 -x {0.0 4.0 38 ------- null}
+ -t 0.422 -s 2 -d 3 -p cbr -e 1000 -c 1 -i 38 -a 1 -x {0.0 4.0 38 ------- null}
d -t 0.422 -s 2 -d 3 -p cbr -e 1000 -c 1 -i 38 -a 1 -x {0.0 4.0 38 ------- null}
r -t 0.426 -s 0 -d 2 -p cbr -e 1000 -c 1 -i 39 -a 1 -x {0.0 4.0 39 ------- null}
+ -t 0.426 -s 2 -d 3 -p cbr -e 1000 -c 1 -i 39 -a 1 -x {0.0 4.0 39 ------- null}
d -t 0.426 -s 2 -d 3 -p cbr -e 1000 -c 1 -i 39 -a 1 -x {0.0 4.0 39 ------- null}
r -t 0.438 -s 2 -d 3 -p cbr -e 1000 -c 1 -i 9 -a 1 -x {0.0 4.0 9 ------- null}
h -t 0.438 -s 3 -d 6 -p cbr -e 1000 -c 1 -i 9 -a 1 -x {0.0 4.0 9 ------- null}
+ -t 0.438 -s 3 -d 6 -p cbr -e 1000 -c 1 -i 8 -a 1 -x {0.0 4.0 8 ------- null}
- -t 0.438 -s 3 -d 6 -p cbr -e 1000 -c 1 -i 8 -a 1 -x {0.0 4.0 8 ------- null}
h -t 0.438 -s 3 -d 6 -p cbr -e 1000 -c 1 -i 8 -a 1 -x {0.0 4.0 -1 ------- null}
+ -t 0.44 -s 0 -d 2 -p cbr -e 1000 -c 1 -i 40 -a 1 -x {0.0 4.0 40 ------- null}
- -t 0.44 -s 0 -d 2 -p cbr -e 1000 -c 1 -i 40 -a 1 -x {0.0 4.0 40 ------- null}
h -t 0.44 -s 0 -d 2 -p cbr -e 1000 -c 1 -i 40 -a 1 -x {0.0 4.0 -1 ------- null}
+ -t 0.44 -s 0 -d 2 -p cbr -e 1000 -c 1 -i 41 -a 1 -x {0.0 4.0 41 ------- null}
+ -t 0.44 -s 0 -d 2 -p cbr -e 1000 -c 1 -i 42 -a 1 -x {0.0 4.0 42 ------- null}
+ -t 0.44 -s 0 -d 2 -p cbr -e 1000 -c 1 -i 43 -a 1 -x {0.0 4.0 43 ------- null}
- -t 0.444 -s 0 -d 2 -p cbr -e 1000 -c 1 -i 41 -a 1 -x {0.0 4.0 41 ------- null}
h -t 0.444 -s 0 -d 2 -p cbr -e 1000 -c 1 -i 41 -a 1 -x {0.0 4.0 -1 ------- null}
- -t 0.448 -s 0 -d 2 -p cbr -e 1000 -c 1 -i 42 -a 1 -x {0.0 4.0 42 ------- null}
h -t 0.448 -s 0 -d 2 -p cbr -e 1000 -c 1 -i 42 -a 1 -x {0.0 4.0 -1 ------- null}
- -t 0.452 -s 0 -d 2 -p cbr -e 1000 -c 1 -i 43 -a 1 -x {0.0 4.0 43 ------- null}
h -t 0.452 -s 0 -d 2 -p cbr -e 1000 -c 1 -i 43 -a 1 -x {0.0 4.0 -1 ------- null}
r -t 0.454 -s 0 -d 2 -p cbr -e 1000 -c 1 -i 40 -a 1 -x {0.0 4.0 40 ------- null}
+ -t 0.454 -s 2 -d 3 -p cbr -e 1000 -c 1 -i 40 -a 1 -x {0.0 4.0 40 ------- null}
d -t 0.454 -s 2 -d 3 -p cbr -e 1000 -c 1 -i 40 -a 1 -x {0.0 4.0 40 ------- null}
r -t 0.454228 -s 6 -d 4 -p cbr -e 1000 -c 1 -i 7 -a 1 -x {0.0 4.0 7 ------- null}
- -t 0.458 -s 2 -d 3 -p cbr -e 1000 -c 1 -i 14 -a 1 -x {0.0 4.0 14 ------- null}
h -t 0.458 -s 2 -d 3 -p cbr -e 1000 -c 1 -i 14 -a 1 -x {0.0 4.0 -1 ------- null}
r -t 0.458 -s 0 -d 2 -p cbr -e 1000 -c 1 -i 41 -a 1 -x {0.0 4.0 41 ------- null}
+ -t 0.458 -s 2 -d 3 -p cbr -e 1000 -c 1 -i 41 -a 1 -x {0.0 4.0 41 ------- null}
r -t 0.462 -s 0 -d 2 -p cbr -e 1000 -c 1 -i 42 -a 1 -x {0.0 4.0 42 ------- null}
+ -t 0.462 -s 2 -d 3 -p cbr -e 1000 -c 1 -i 42 -a 1 -x {0.0 4.0 42 ------- null}
d -t 0.462 -s 2 -d 3 -p cbr -e 1000 -c 1 -i 42 -a 1 -x {0.0 4.0 42 ------- null}
r -t 0.466 -s 0 -d 2 -p cbr -e 1000 -c 1 -i 43 -a 1 -x {0.0 4.0 43 ------- null}
d -t 0.466 -s 2 -d 3 -p cbr -e 1000 -c 1 -i 43 -a 1 -x {0.0 4.0 43 ------- null}
r -t 0.478 -s 2 -d 3 -p cbr -e 1000 -c 1 -i 10 -a 1 -x {0.0 4.0 10 ------- null}
h -t 0.478 -s 3 -d 6 -p cbr -e 1000 -c 1 -i 10 -a 1 -x {0.0 4.0 10 ------- null}
+ -t 0.478 -s 3 -d 6 -p cbr -e 1000 -c 1 -i 9 -a 1 -x {0.0 4.0 9 ------- null}
- -t 0.478 -s 3 -d 6 -p cbr -e 1000 -c 1 -i 9 -a 1 -x {0.0 4.0 9 ------- null}
h -t 0.478 -s 3 -d 6 -p cbr -e 1000 -c 1 -i 9 -a 1 -x {0.0 4.0 -1 ------- null}
+ -t 0.48 -s 0 -d 2 -p cbr -e 1000 -c 1 -i 44 -a 1 -x {0.0 4.0 44 ------- null}
- -t 0.48 -s 0 -d 2 -p cbr -e 1000 -c 1 -i 44 -a 1 -x {0.0 4.0 44 ------- null}
h -t 0.48 -s 0 -d 2 -p cbr -e 1000 -c 1 -i 44 -a 1 -x {0.0 4.0 -1 ------- null}
+ -t 0.48 -s 0 -d 2 -p cbr -e 1000 -c 1 -i 45 -a 1 -x {0.0 4.0 45 ------- null}
+ -t 0.48 -s 0 -d 2 -p cbr -e 1000 -c 1 -i 46 -a 1 -x {0.0 4.0 46 ------- null}
+ -t 0.48 -s 0 -d 2 -p cbr -e 1000 -c 1 -i 47 -a 1 -x {0.0 4.0 47 ------- null}
- -t 0.484 -s 0 -d 2 -p cbr -e 1000 -c 1 -i 45 -a 1 -x {0.0 4.0 45 ------- null}
h -t 0.484 -s 0 -d 2 -p cbr -e 1000 -c 1 -i 45 -a 1 -x {0.0 4.0 -1 ------- null}
- -t 0.488 -s 0 -d 2 -p cbr -e 1000 -c 1 -i 46 -a 1 -x {0.0 4.0 46 ------- null}
h -t 0.488 -s 0 -d 2 -p cbr -e 1000 -c 1 -i 46 -a 1 -x {0.0 4.0 -1 ------- null}
- -t 0.492 -s 0 -d 2 -p cbr -e 1000 -c 1 -i 47 -a 1 -x {0.0 4.0 47 ------- null}
h -t 0.492 -s 0 -d 2 -p cbr -e 1000 -c 1 -i 47 -a 1 -x {0.0 4.0 -1 ------- null}
r -t 0.494 -s 0 -d 2 -p cbr -e 1000 -c 1 -i 44 -a 1 -x {0.0 4.0 44 ------- null}
d -t 0.494 -s 2 -d 3 -p cbr -e 1000 -c 1 -i 44 -a 1 -x {0.0 4.0 44 ------- null}
r -t 0.494228 -s 6 -d 4 -p cbr -e 1000 -c 1 -i 8 -a 1 -x {0.0 4.0 8 ------- null}
- -t 0.498 -s 2 -d 3 -p cbr -e 1000 -c 1 -i 15 -a 1 -x {0.0 4.0 15 ------- null}
h -t 0.498 -s 2 -d 3 -p cbr -e 1000 -c 1 -i 15 -a 1 -x {0.0 4.0 -1 ------- null}
r -t 0.498 -s 0 -d 2 -p cbr -e 1000 -c 1 -i 45 -a 1 -x {0.0 4.0 45 ------- null}
+ -t 0.498 -s 2 -d 3 -p cbr -e 1000 -c 1 -i 45 -a 1 -x {0.0 4.0 45 ------- null}
r -t 0.502 -s 0 -d 2 -p cbr -e 1000 -c 1 -i 46 -a 1 -x {0.0 4.0 46 ------- null}
+ -t 0.502 -s 2 -d 3 -p cbr -e 1000 -c 1 -i 46 -a 1 -x {0.0 4.0 46 ------- null}
d -t 0.502 -s 2 -d 3 -p cbr -e 1000 -c 1 -i 46 -a 1 -x {0.0 4.0 46 ------- null}
r -t 0.506 -s 0 -d 2 -p cbr -e 1000 -c 1 -i 47 -a 1 -x {0.0 4.0 47 ------- null}
+ -t 0.506 -s 2 -d 3 -p cbr -e 1000 -c 1 -i 47 -a 1 -x {0.0 4.0 47 ------- null}
d -t 0.506 -s 2 -d 3 -p cbr -e 1000 -c 1 -i 47 -a 1 -x {0.0 4.0 47 ------- null}
r -t 0.518 -s 2 -d 3 -p cbr -e 1000 -c 1 -i 11 -a 1 -x {0.0 4.0 11 ------- null}
h -t 0.518 -s 3 -d 6 -p cbr -e 1000 -c 1 -i 11 -a 1 -x {0.0 4.0 11 ------- null}
+ -t 0.518 -s 3 -d 6 -p cbr -e 1000 -c 1 -i 10 -a 1 -x {0.0 4.0 10 ------- null}
- -t 0.518 -s 3 -d 6 -p cbr -e 1000 -c 1 -i 10 -a 1 -x {0.0 4.0 10 ------- null}
h -t 0.518 -s 3 -d 6 -p cbr -e 1000 -c 1 -i 10 -a 1 -x {0.0 4.0 -1 ------- null}
+ -t 0.52 -s 0 -d 2 -p cbr -e 1000 -c 1 -i 48 -a 1 -x {0.0 4.0 48 ------- null}
- -t 0.52 -s 0 -d 2 -p cbr -e 1000 -c 1 -i 48 -a 1 -x {0.0 4.0 48 ------- null}
h -t 0.52 -s 0 -d 2 -p cbr -e 1000 -c 1 -i 48 -a 1 -x {0.0 4.0 -1 ------- null}
+ -t 0.52 -s 0 -d 2 -p cbr -e 1000 -c 1 -i 49 -a 1 -x {0.0 4.0 49 ------- null}
+ -t 0.52 -s 0 -d 2 -p cbr -e 1000 -c 1 -i 50 -a 1 -x {0.0 4.0 50 ------- null}
+ -t 0.52 -s 0 -d 2 -p cbr -e 1000 -c 1 -i 51 -a 1 -x {0.0 4.0 51 ------- null}
- -t 0.524 -s 0 -d 2 -p cbr -e 1000 -c 1 -i 49 -a 1 -x {0.0 4.0 49 ------- null}
h -t 0.524 -s 0 -d 2 -p cbr -e 1000 -c 1 -i 49 -a 1 -x {0.0 4.0 -1 ------- null}
- -t 0.528 -s 0 -d 2 -p cbr -e 1000 -c 1 -i 50 -a 1 -x {0.0 4.0 50 ------- null}
h -t 0.528 -s 0 -d 2 -p cbr -e 1000 -c 1 -i 50 -a 1 -x {0.0 4.0 -1 ------- null}
- -t 0.532 -s 0 -d 2 -p cbr -e 1000 -c 1 -i 51 -a 1 -x {0.0 4.0 51 ------- null}
h -t 0.532 -s 0 -d 2 -p cbr -e 1000 -c 1 -i 51 -a 1 -x {0.0 4.0 -1 ------- null}
r -t 0.534 -s 0 -d 2 -p cbr -e 1000 -c 1 -i 48 -a 1 -x {0.0 4.0 48 ------- null}
+ -t 0.534 -s 2 -d 3 -p cbr -e 1000 -c 1 -i 48 -a 1 -x {0.0 4.0 48 ------- null}
d -t 0.534 -s 2 -d 3 -p cbr -e 1000 -c 1 -i 48 -a 1 -x {0.0 4.0 48 ------- null}
r -t 0.534228 -s 6 -d 4 -p cbr -e 1000 -c 1 -i 9 -a 1 -x {0.0 4.0 9 ------- null}
- -t 0.538 -s 2 -d 3 -p cbr -e 1000 -c 1 -i 16 -a 1 -x {0.0 4.0 16 ------- null}
h -t 0.538 -s 2 -d 3 -p cbr -e 1000 -c 1 -i 16 -a 1 -x {0.0 4.0 -1 ------- null}
r -t 0.538 -s 0 -d 2 -p cbr -e 1000 -c 1 -i 49 -a 1 -x {0.0 4.0 49 ------- null}
+ -t 0.538 -s 2 -d 3 -p cbr -e 1000 -c 1 -i 49 -a 1 -x {0.0 4.0 49 ------- null}
r -t 0.542 -s 0 -d 2 -p cbr -e 1000 -c 1 -i 50 -a 1 -x {0.0 4.0 50 ------- null}
+ -t 0.542 -s 2 -d 3 -p cbr -e 1000 -c 1 -i 50 -a 1 -x {0.0 4.0 50 ------- null}
d -t 0.542 -s 2 -d 3 -p cbr -e 1000 -c 1 -i 50 -a 1 -x {0.0 4.0 50 ------- null}
r -t 0.546 -s 0 -d 2 -p cbr -e 1000 -c 1 -i 51 -a 1 -x {0.0 4.0 51 ------- null}
+ -t 0.546 -s 2 -d 3 -p cbr -e 1000 -c 1 -i 51 -a 1 -x {0.0 4.0 51 ------- null}
d -t 0.546 -s 2 -d 3 -p cbr -e 1000 -c 1 -i 51 -a 1 -x {0.0 4.0 51 ------- null}
r -t 0.558 -s 2 -d 3 -p cbr -e 1000 -c 1 -i 12 -a 1 -x {0.0 4.0 12 ------- null}
h -t 0.558 -s 3 -d 6 -p cbr -e 1000 -c 1 -i 12 -a 1 -x {0.0 4.0 12 ------- null}
+ -t 0.558 -s 3 -d 6 -p cbr -e 1000 -c 1 -i 11 -a 1 -x {0.0 4.0 11 ------- null}
- -t 0.558 -s 3 -d 6 -p cbr -e 1000 -c 1 -i 11 -a 1 -x {0.0 4.0 11 ------- null}