+ 0.04 0 2 cbr 1000 ------- 1 0.0 4.0 0 0
- 0.04 0 2 cbr 1000 ------- 1 0.0 4.0 0 0
+ 0.04 0 2 cbr 1000 ------- 1 0.0 4.0 1 1
+ 0.04 0 2 cbr 1000 ------- 1 0.0 4.0 2 2
+ 0.04 0 2 cbr 1000 ------- 1 0.0 4.0 3 3
- 0.044 0 2 cbr 1000 ------- 1 0.0 4.0 1 1
- 0.048 0 2 cbr 1000 ------- 1 0.0 4.0 2 2
- 0.052 0 2 cbr 1000 ------- 1 0.0 4.0 3 3
r 0.054 0 2 cbr 1000 ------- 1 0.0 4.0 0 0
d 0.054 2 3 cbr 1000 ------- 1 0.0 4.0 0 0
r 0.058 0 2 cbr 1000 ------- 1 0.0 4.0 1 1
+ 0.058 2 3 cbr 1000 ------- 1 0.0 4.0 1 1
- 0.058 2 3 cbr 1000 ------- 1 0.0 4.0 1 1
r 0.062 0 2 cbr 1000 ------- 1 0.0 4.0 2 2
d 0.062 2 3 cbr 1000 ------- 1 0.0 4.0 2 2
r 0.066 0 2 cbr 1000 ------- 1 0.0 4.0 3 3
d 0.066 2 3 cbr 1000 ------- 1 0.0 4.0 3 3
+ 0.08 0 2 cbr 1000 ------- 1 0.0 4.0 4 4
- 0.08 0 2 cbr 1000 ------- 1 0.0 4.0 4 4
+ 0.08 0 2 cbr 1000 ------- 1 0.0 4.0 5 5
+ 0.08 0 2 cbr 1000 ------- 1 0.0 4.0 6 6
+ 0.08 0 2 cbr 1000 ------- 1 0.0 4.0 7 7
- 0.084 0 2 cbr 1000 ------- 1 0.0 4.0 5 5
- 0.088 0 2 cbr 1000 ------- 1 0.0 4.0 6 6
- 0.092 0 2 cbr 1000 ------- 1 0.0 4.0 7 7
r 0.094 0 2 cbr 1000 ------- 1 0.0 4.0 4 4
+ 0.094 2 3 cbr 1000 ------- 1 0.0 4.0 4 4
- 0.098 2 3 cbr 1000 ------- 1 0.0 4.0 4 4
r 0.098 0 2 cbr 1000 ------- 1 0.0 4.0 5 5
+ 0.098 2 3 cbr 1000 ------- 1 0.0 4.0 5 5
r 0.102 0 2 cbr 1000 ------- 1 0.0 4.0 6 6
+ 0.102 2 3 cbr 1000 ------- 1 0.0 4.0 6 6
r 0.106 0 2 cbr 1000 ------- 1 0.0 4.0 7 7
+ 0.106 2 3 cbr 1000 ------- 1 0.0 4.0 7 7
+ 0.12 0 2 cbr 1000 ------- 1 0.0 4.0 8 8
- 0.12 0 2 cbr 1000 ------- 1 0.0 4.0 8 8
+ 0.12 0 2 cbr 1000 ------- 1 0.0 4.0 9 9
+ 0.12 0 2 cbr 1000 ------- 1 0.0 4.0 10 10
+ 0.12 0 2 cbr 1000 ------- 1 0.0 4.0 11 11
- 0.124 0 2 cbr 1000 ------- 1 0.0 4.0 9 9
- 0.128 0 2 cbr 1000 ------- 1 0.0 4.0 10 10
- 0.132 0 2 cbr 1000 ------- 1 0.0 4.0 11 11
r 0.134 0 2 cbr 1000 ------- 1 0.0 4.0 8 8
+ 0.134 2 3 cbr 1000 ------- 1 0.0 4.0 8 8
- 0.138 2 3 cbr 1000 ------- 1 0.0 4.0 5 5
r 0.138 0 2 cbr 1000 ------- 1 0.0 4.0 9 9
+ 0.138 2 3 cbr 1000 ------- 1 0.0 4.0 9 9
r 0.142 0 2 cbr 1000 ------- 1 0.0 4.0 10 10
+ 0.142 2 3 cbr 1000 ------- 1 0.0 4.0 10 10
r 0.146 0 2 cbr 1000 ------- 1 0.0 4.0 11 11
+ 0.146 2 3 cbr 1000 ------- 1 0.0 4.0 11 11
+ 0.16 0 2 cbr 1000 ------- 1 0.0 4.0 12 12
- 0.16 0 2 cbr 1000 ------- 1 0.0 4.0 12 12
+ 0.16 0 2 cbr 1000 ------- 1 0.0 4.0 13 13
+ 0.16 0 2 cbr 1000 ------- 1 0.0 4.0 14 14
+ 0.16 0 2 cbr 1000 ------- 1 0.0 4.0 15 15
- 0.164 0 2 cbr 1000 ------- 1 0.0 4.0 13 13
- 0.168 0 2 cbr 1000 ------- 1 0.0 4.0 14 14
- 0.172 0 2 cbr 1000 ------- 1 0.0 4.0 15 15
r 0.174 0 2 cbr 1000 ------- 1 0.0 4.0 12 12
+ 0.174 2 3 cbr 1000 ------- 1 0.0 4.0 12 12
- 0.178 2 3 cbr 1000 ------- 1 0.0 4.0 6 6
r 0.178 0 2 cbr 1000 ------- 1 0.0 4.0 13 13
d 0.178 2 3 cbr 1000 ------- 1 0.0 4.0 13 13
r 0.182 0 2 cbr 1000 ------- 1 0.0 4.0 14 14
+ 0.182 2 3 cbr 1000 ------- 1 0.0 4.0 14 14
r 0.186 0 2 cbr 1000 ------- 1 0.0 4.0 15 15
+ 0.186 2 3 cbr 1000 ------- 1 0.0 4.0 15 15
r 0.198 2 3 cbr 1000 ------- 1 0.0 4.0 1 1
h 0.198 3 6 cbr 1000 ------- 1 0.0 4.0 1 1
+ 0.2 0 2 cbr 1000 ------- 1 0.0 4.0 16 16
- 0.2 0 2 cbr 1000 ------- 1 0.0 4.0 16 16
+ 0.2 0 2 cbr 1000 ------- 1 0.0 4.0 17 17
+ 0.2 0 2 cbr 1000 ------- 1 0.0 4.0 18 18
+ 0.2 0 2 cbr 1000 ------- 1 0.0 4.0 19 19
- 0.204 0 2 cbr 1000 ------- 1 0.0 4.0 17 17
- 0.208 0 2 cbr 1000 ------- 1 0.0 4.0 18 18
- 0.212 0 2 cbr 1000 ------- 1 0.0 4.0 19 19
r 0.214 0 2 cbr 1000 ------- 1 0.0 4.0 16 16
+ 0.214 2 3 cbr 1000 ------- 1 0.0 4.0 16 16
- 0.218 2 3 cbr 1000 ------- 1 0.0 4.0 7 7
r 0.218 0 2 cbr 1000 ------- 1 0.0 4.0 17 17
+ 0.218 2 3 cbr 1000 ------- 1 0.0 4.0 17 17
r 0.222 0 2 cbr 1000 ------- 1 0.0 4.0 18 18
+ 0.222 2 3 cbr 1000 ------- 1 0.0 4.0 18 18
d 0.222 2 3 cbr 1000 ------- 1 0.0 4.0 18 18
r 0.226 0 2 cbr 1000 ------- 1 0.0 4.0 19 19
d 0.226 2 3 cbr 1000 ------- 1 0.0 4.0 19 19
r 0.238 2 3 cbr 1000 ------- 1 0.0 4.0 4 4
h 0.238 3 6 cbr 1000 ------- 1 0.0 4.0 4 4
+ 0.238 3 6 cbr 1000 ------- 1 0.0 4.0 1 1
- 0.238 3 6 cbr 1000 ------- 1 0.0 4.0 1 1
+ 0.24 0 2 cbr 1000 ------- 1 0.0 4.0 20 20
- 0.24 0 2 cbr 1000 ------- 1 0.0 4.0 20 20
+ 0.24 0 2 cbr 1000 ------- 1 0.0 4.0 21 21
+ 0.24 0 2 cbr 1000 ------- 1 0.0 4.0 22 22
+ 0.24 0 2 cbr 1000 ------- 1 0.0 4.0 23 23
- 0.244 0 2 cbr 1000 ------- 1 0.0 4.0 21 21
- 0.248 0 2 cbr 1000 ------- 1 0.0 4.0 22 22
- 0.252 0 2 cbr 1000 ------- 1 0.0 4.0 23 23
r 0.254 0 2 cbr 1000 ------- 1 0.0 4.0 20 20
+ 0.254 2 3 cbr 1000 ------- 1 0.0 4.0 20 20
d 0.254 2 3 cbr 1000 ------- 1 0.0 4.0 20 20
- 0.258 2 3 cbr 1000 ------- 1 0.0 4.0 8 8
r 0.258 0 2 cbr 1000 ------- 1 0.0 4.0 21 21
+ 0.258 2 3 cbr 1000 ------- 1 0.0 4.0 21 21
r 0.262 0 2 cbr 1000 ------- 1 0.0 4.0 22 22
+ 0.262 2 3 cbr 1000 ------- 1 0.0 4.0 22 22
d 0.262 2 3 cbr 1000 ------- 1 0.0 4.0 22 22
r 0.266 0 2 cbr 1000 ------- 1 0.0 4.0 23 23
+ 0.266 2 3 cbr 1000 ------- 1 0.0 4.0 23 23
d 0.266 2 3 cbr 1000 ------- 1 0.0 4.0 23 23
r 0.278 2 3 cbr 1000 ------- 1 0.0 4.0 5 5
h 0.278 3 6 cbr 1000 ------- 1 0.0 4.0 5 5
+ 0.278 3 6 cbr 1000 ------- 1 0.0 4.0 4 4
- 0.278 3 6 cbr 1000 ------- 1 0.0 4.0 4 4
+ 0.28 0 2 cbr 1000 ------- 1 0.0 4.0 24 24
- 0.28 0 2 cbr 1000 ------- 1 0.0 4.0 24 24
+ 0.28 0 2 cbr 1000 ------- 1 0.0 4.0 25 25
+ 0.28 0 2 cbr 1000 ------- 1 0.0 4.0 26 26
+ 0.28 0 2 cbr 1000 ------- 1 0.0 4.0 27 27
- 0.284 0 2 cbr 1000 ------- 1 0.0 4.0 25 25
- 0.288 0 2 cbr 1000 ------- 1 0.0 4.0 26 26
- 0.292 0 2 cbr 1000 ------- 1 0.0 4.0 27 27
r 0.294 0 2 cbr 1000 ------- 1 0.0 4.0 24 24
+ 0.294 2 3 cbr 1000 ------- 1 0.0 4.0 24 24
d 0.294 2 3 cbr 1000 ------- 1 0.0 4.0 24 24
r 0.294228 6 4 cbr 1000 ------- 1 0.0 4.0 1 1
- 0.298 2 3 cbr 1000 ------- 1 0.0 4.0 9 9
r 0.298 0 2 cbr 1000 ------- 1 0.0 4.0 25 25
+ 0.298 2 3 cbr 1000 ------- 1 0.0 4.0 25 25
r 0.302 0 2 cbr 1000 ------- 1 0.0 4.0 26 26
+ 0.302 2 3 cbr 1000 ------- 1 0.0 4.0 26 26
d 0.302 2 3 cbr 1000 ------- 1 0.0 4.0 26 26
r 0.306 0 2 cbr 1000 ------- 1 0.0 4.0 27 27
+ 0.306 2 3 cbr 1000 ------- 1 0.0 4.0 27 27
d 0.306 2 3 cbr 1000 ------- 1 0.0 4.0 27 27
+ 0.318 3 6 cbr 1000 ------- 1 0.0 4.0 5 5
- 0.318 3 6 cbr 1000 ------- 1 0.0 4.0 5 5
r 0.318 2 3 cbr 1000 ------- 1 0.0 4.0 6 6
h 0.318 3 6 cbr 1000 ------- 1 0.0 4.0 6 6
+ 0.32 0 2 cbr 1000 ------- 1 0.0 4.0 28 28
- 0.32 0 2 cbr 1000 ------- 1 0.0 4.0 28 28
+ 0.32 0 2 cbr 1000 ------- 1 0.0 4.0 29 29
+ 0.32 0 2 cbr 1000 ------- 1 0.0 4.0 30 30
+ 0.32 0 2 cbr 1000 ------- 1 0.0 4.0 31 31
- 0.324 0 2 cbr 1000 ------- 1 0.0 4.0 29 29
- 0.328 0 2 cbr 1000 ------- 1 0.0 4.0 30 30
- 0.332 0 2 cbr 1000 ------- 1 0.0 4.0 31 31
r 0.334 0 2 cbr 1000 ------- 1 0.0 4.0 28 28
+ 0.334 2 3 cbr 1000 ------- 1 0.0 4.0 28 28
d 0.334 2 3 cbr 1000 ------- 1 0.0 4.0 28 28
r 0.334228 6 4 cbr 1000 ------- 1 0.0 4.0 4 4
- 0.338 2 3 cbr 1000 ------- 1 0.0 4.0 10 10
r 0.338 0 2 cbr 1000 ------- 1 0.0 4.0 29 29
+ 0.338 2 3 cbr 1000 ------- 1 0.0 4.0 29 29
r 0.342 0 2 cbr 1000 ------- 1 0.0 4.0 30 30
+ 0.342 2 3 cbr 1000 ------- 1 0.0 4.0 30 30
d 0.342 2 3 cbr 1000 ------- 1 0.0 4.0 30 30
r 0.346 0 2 cbr 1000 ------- 1 0.0 4.0 31 31
+ 0.346 2 3 cbr 1000 ------- 1 0.0 4.0 31 31
d 0.346 2 3 cbr 1000 ------- 1 0.0 4.0 31 31
r 0.358 2 3 cbr 1000 ------- 1 0.0 4.0 7 7
h 0.358 3 6 cbr 1000 ------- 1 0.0 4.0 7 7
+ 0.358 3 6 cbr 1000 ------- 1 0.0 4.0 6 6
- 0.358 3 6 cbr 1000 ------- 1 0.0 4.0 6 6
+ 0.36 0 2 cbr 1000 ------- 1 0.0 4.0 32 32
- 0.36 0 2 cbr 1000 ------- 1 0.0 4.0 32 32
+ 0.36 0 2 cbr 1000 ------- 1 0.0 4.0 33 33
+ 0.36 0 2 cbr 1000 ------- 1 0.0 4.0 34 34
+ 0.36 0 2 cbr 1000 ------- 1 0.0 4.0 35 35
- 0.364 0 2 cbr 1000 ------- 1 0.0 4.0 33 33
- 0.368 0 2 cbr 1000 ------- 1 0.0 4.0 34 34
- 0.372 0 2 cbr 1000 ------- 1 0.0 4.0 35 35
r 0.374 0 2 cbr 1000 ------- 1 0.0 4.0 32 32
+ 0.374 2 3 cbr 1000 ------- 1 0.0 4.0 32 32
d 0.374 2 3 cbr 1000 ------- 1 0.0 4.0 32 32
r 0.374228 6 4 cbr 1000 ------- 1 0.0 4.0 5 5
- 0.378 2 3 cbr 1000 ------- 1 0.0 4.0 11 11
r 0.378 0 2 cbr 1000 ------- 1 0.0 4.0 33 33
+ 0.378 2 3 cbr 1000 ------- 1 0.0 4.0 33 33
r 0.382 0 2 cbr 1000 ------- 1 0.0 4.0 34 34
+ 0.382 2 3 cbr 1000 ------- 1 0.0 4.0 34 34
d 0.382 2 3 cbr 1000 ------- 1 0.0 4.0 34 34
r 0.386 0 2 cbr 1000 ------- 1 0.0 4.0 35 35
+ 0.386 2 3 cbr 1000 ------- 1 0.0 4.0 35 35
d 0.386 2 3 cbr 1000 ------- 1 0.0 4.0 35 35
r 0.398 2 3 cbr 1000 ------- 1 0.0 4.0 8 8
h 0.398 3 6 cbr 1000 ------- 1 0.0 4.0 8 8
+ 0.398 3 6 cbr 1000 ------- 1 0.0 4.0 7 7
- 0.398 3 6 cbr 1000 ------- 1 0.0 4.0 7 7
+ 0.4 0 2 cbr 1000 ------- 1 0.0 4.0 36 36
- 0.4 0 2 cbr 1000 ------- 1 0.0 4.0 36 36
+ 0.4 0 2 cbr 1000 ------- 1 0.0 4.0 37 37
+ 0.4 0 2 cbr 1000 ------- 1 0.0 4.0 38 38
+ 0.4 0 2 cbr 1000 ------- 1 0.0 4.0 39 39
- 0.404 0 2 cbr 1000 ------- 1 0.0 4.0 37 37
- 0.408 0 2 cbr 1000 ------- 1 0.0 4.0 38 38
- 0.412 0 2 cbr 1000 ------- 1 0.0 4.0 39 39
r 0.414 0 2 cbr 1000 ------- 1 0.0 4.0 36 36
+ 0.414 2 3 cbr 1000 ------- 1 0.0 4.0 36 36
d 0.414 2 3 cbr 1000 ------- 1 0.0 4.0 36 36
r 0.414228 6 4 cbr 1000 ------- 1 0.0 4.0 6 6
- 0.418 2 3 cbr 1000 ------- 1 0.0 4.0 12 12
r 0.418 0 2 cbr 1000 ------- 1 0.0 4.0 37 37
+ 0.418 2 3 cbr 1000 ------- 1 0.0 4.0 37 37
r 0.422 0 2 cbr 1000 ------- 1 0.0 4.0 38 38
+ 0.422 2 3 cbr 1000 ------- 1 0.0 4.0 38 38
d 0.422 2 3 cbr 1000 ------- 1 0.0 4.0 38 38
r 0.426 0 2 cbr 1000 ------- 1 0.0 4.0 39 39
+ 0.426 2 3 cbr 1000 ------- 1 0.0 4.0 39 39
d 0.426 2 3 cbr 1000 ------- 1 0.0 4.0 39 39
r 0.438 2 3 cbr 1000 ------- 1 0.0 4.0 9 9
h 0.438 3 6 cbr 1000 ------- 1 0.0 4.0 9 9
+ 0.438 3 6 cbr 1000 ------- 1 0.0 4.0 8 8
- 0.438 3 6 cbr 1000 ------- 1 0.0 4.0 8 8
+ 0.44 0 2 cbr 1000 ------- 1 0.0 4.0 40 40
- 0.44 0 2 cbr 1000 ------- 1 0.0 4.0 40 40
+ 0.44 0 2 cbr 1000 ------- 1 0.0 4.0 41 41
+ 0.44 0 2 cbr 1000 ------- 1 0.0 4.0 42 42
+ 0.44 0 2 cbr 1000 ------- 1 0.0 4.0 43 43
- 0.444 0 2 cbr 1000 ------- 1 0.0 4.0 41 41
- 0.448 0 2 cbr 1000 ------- 1 0.0 4.0 42 42
- 0.452 0 2 cbr 1000 ------- 1 0.0 4.0 43 43
r 0.454 0 2 cbr 1000 ------- 1 0.0 4.0 40 40
+ 0.454 2 3 cbr 1000 ------- 1 0.0 4.0 40 40
d 0.454 2 3 cbr 1000 ------- 1 0.0 4.0 40 40
r 0.454228 6 4 cbr 1000 ------- 1 0.0 4.0 7 7
- 0.458 2 3 cbr 1000 ------- 1 0.0 4.0 14 14
r 0.458 0 2 cbr 1000 ------- 1 0.0 4.0 41 41
+ 0.458 2 3 cbr 1000 ------- 1 0.0 4.0 41 41
r 0.462 0 2 cbr 1000 ------- 1 0.0 4.0 42 42
+ 0.462 2 3 cbr 1000 ------- 1 0.0 4.0 42 42
d 0.462 2 3 cbr 1000 ------- 1 0.0 4.0 42 42
r 0.466 0 2 cbr 1000 ------- 1 0.0 4.0 43 43
d 0.466 2 3 cbr 1000 ------- 1 0.0 4.0 43 43
r 0.478 2 3 cbr 1000 ------- 1 0.0 4.0 10 10
h 0.478 3 6 cbr 1000 ------- 1 0.0 4.0 10 10
+ 0.478 3 6 cbr 1000 ------- 1 0.0 4.0 9 9
- 0.478 3 6 cbr 1000 ------- 1 0.0 4.0 9 9
+ 0.48 0 2 cbr 1000 ------- 1 0.0 4.0 44 44
- 0.48 0 2 cbr 1000 ------- 1 0.0 4.0 44 44
+ 0.48 0 2 cbr 1000 ------- 1 0.0 4.0 45 45
+ 0.48 0 2 cbr 1000 ------- 1 0.0 4.0 46 46
+ 0.48 0 2 cbr 1000 ------- 1 0.0 4.0 47 47
- 0.484 0 2 cbr 1000 ------- 1 0.0 4.0 45 45
- 0.488 0 2 cbr 1000 ------- 1 0.0 4.0 46 46
- 0.492 0 2 cbr 1000 ------- 1 0.0 4.0 47 47
r 0.494 0 2 cbr 1000 ------- 1 0.0 4.0 44 44
d 0.494 2 3 cbr 1000 ------- 1 0.0 4.0 44 44
r 0.494228 6 4 cbr 1000 ------- 1 0.0 4.0 8 8
- 0.498 2 3 cbr 1000 ------- 1 0.0 4.0 15 15
r 0.498 0 2 cbr 1000 ------- 1 0.0 4.0 45 45
+ 0.498 2 3 cbr 1000 ------- 1 0.0 4.0 45 45
r 0.502 0 2 cbr 1000 ------- 1 0.0 4.0 46 46
+ 0.502 2 3 cbr 1000 ------- 1 0.0 4.0 46 46
d 0.502 2 3 cbr 1000 ------- 1 0.0 4.0 46 46
r 0.506 0 2 cbr 1000 ------- 1 0.0 4.0 47 47
+ 0.506 2 3 cbr 1000 ------- 1 0.0 4.0 47 47
d 0.506 2 3 cbr 1000 ------- 1 0.0 4.0 47 47
r 0.518 2 3 cbr 1000 ------- 1 0.0 4.0 11 11
h 0.518 3 6 cbr 1000 ------- 1 0.0 4.0 11 11
+ 0.518 3 6 cbr 1000 ------- 1 0.0 4.0 10 10
- 0.518 3 6 cbr 1000 ------- 1 0.0 4.0 10 10
+ 0.52 0 2 cbr 1000 ------- 1 0.0 4.0 48 48
- 0.52 0 2 cbr 1000 ------- 1 0.0 4.0 48 48
+ 0.52 0 2 cbr 1000 ------- 1 0.0 4.0 49 49
+ 0.52 0 2 cbr 1000 ------- 1 0.0 4.0 50 50
+ 0.52 0 2 cbr 1000 ------- 1 0.0 4.0 51 51
- 0.524 0 2 cbr 1000 ------- 1 0.0 4.0 49 49
- 0.528 0 2 cbr 1000 ------- 1 0.0 4.0 50 50
- 0.532 0 2 cbr 1000 ------- 1 0.0 4.0 51 51
r 0.534 0 2 cbr 1000 ------- 1 0.0 4.0 48 48
+ 0.534 2 3 cbr 1000 ------- 1 0.0 4.0 48 48
d 0.534 2 3 cbr 1000 ------- 1 0.0 4.0 48 48
r 0.534228 6 4 cbr 1000 ------- 1 0.0 4.0 9 9
- 0.538 2 3 cbr 1000 ------- 1 0.0 4.0 16 16
r 0.538 0 2 cbr 1000 ------- 1 0.0 4.0 49 49
+ 0.538 2 3 cbr 1000 ------- 1 0.0 4.0 49 49
r 0.542 0 2 cbr 1000 ------- 1 0.0 4.0 50 50
+ 0.542 2 3 cbr 1000 ------- 1 0.0 4.0 50 50
d 0.542 2 3 cbr 1000 ------- 1 0.0 4.0 50 50
r 0.546 0 2 cbr 1000 ------- 1 0.0 4.0 51 51
+ 0.546 2 3 cbr 1000 ------- 1 0.0 4.0 51 51
d 0.546 2 3 cbr 1000 ------- 1 0.0 4.0 51 51
r 0.558 2 3 cbr 1000 ------- 1 0.0 4.0 12 12
h 0.558 3 6 cbr 1000 ------- 1 0.0 4.0 12 12
+ 0.558 3 6 cbr 1000 ------- 1 0.0 4.0 11 11
- 0.558 3 6 cbr 1000 ------- 1 0.0 4.0 11 11
+ 0.56 0 2 cbr 1000 ------- 1 0.0 4.0 52 52
- 0.56 0 2 cbr 1000 ------- 1 0.0 4.0 52 52
+ 0.56 0 2 cbr 1000 ------- 1 0.0 4.0 53 53
+ 0.56 0 2 cbr 1000 ------- 1 0.0 4.0 54 54
+ 0.56 0 2 cbr 1000 ------- 1 0.0 4.0 55 55
- 0.564 0 2 cbr 1000 ------- 1 0.0 4.0 53 53
- 0.568 0 2 cbr 1000 ------- 1 0.0 4.0 54 54
- 0.572 0 2 cbr 1000 ------- 1 0.0 4.0 55 55
r 0.574 0 2 cbr 1000 ------- 1 0.0 4.0 52 52
+ 0.574 2 3 cbr 1000 ------- 1 0.0 4.0 52 52
d 0.574 2 3 cbr 1000 ------- 1 0.0 4.0 52 52
r 0.574228 6 4 cbr 1000 ------- 1 0.0 4.0 10 10
- 0.578 2 3 cbr 1000 ------- 1 0.0 4.0 17 17
r 0.578 0 2 cbr 1000 ------- 1 0.0 4.0 53 53
+ 0.578 2 3 cbr 1000 ------- 1 0.0 4.0 53 53
r 0.582 0 2 cbr 1000 ------- 1 0.0 4.0 54 54
+ 0.582 2 3 cbr 1000 ------- 1 0.0 4.0 54 54
d 0.582 2 3 cbr 1000 ------- 1 0.0 4.0 54 54
r 0.586 0 2 cbr 1000 ------- 1 0.0 4.0 55 55
+ 0.586 2 3 cbr 1000 ------- 1 0.0 4.0 55 55
d 0.586 2 3 cbr 1000 ------- 1 0.0 4.0 55 55
r 0.598 2 3 cbr 1000 ------- 1 0.0 4.0 14 14
h 0.598 3 6 cbr 1000 ------- 1 0.0 4.0 14 14
+ 0.598 3 6 cbr 1000 ------- 1 0.0 4.0 12 12
- 0.598 3 6 cbr 1000 ------- 1 0.0 4.0 12 12
+ 0.6 0 2 cbr 1000 ------- 1 0.0 4.0 56 56
- 0.6 0 2 cbr 1000 ------- 1 0.0 4.0 56 56
+ 0.6 0 2 cbr 1000 ------- 1 0.0 4.0 57 57
+ 0.6 0 2 cbr 1000 ------- 1 0.0 4.0 58 58
+ 0.6 0 2 cbr 1000 ------- 1 0.0 4.0 59 59
- 0.604 0 2 cbr 1000 ------- 1 0.0 4.0 57 57
- 0.608 0 2 cbr 1000 ------- 1 0.0 4.0 58 58
- 0.612 0 2 cbr 1000 ------- 1 0.0 4.0 59 59
r 0.614 0 2 cbr 1000 ------- 1 0.0 4.0 56 56
d 0.614 2 3 cbr 1000 ------- 1 0.0 4.0 56 56
r 0.614228 6 4 cbr 1000 ------- 1 0.0 4.0 11 11
- 0.618 2 3 cbr 1000 ------- 1 0.0 4.0 21 21
r 0.618 0 2 cbr 1000 ------- 1 0.0 4.0 57 57
+ 0.618 2 3 cbr 1000 ------- 1 0.0 4.0 57 57
r 0.622 0 2 cbr 1000 ------- 1 0.0 4.0 58 58
+ 0.622 2 3 cbr 1000 ------- 1 0.0 4.0 58 58
d 0.622 2 3 cbr 1000 ------- 1 0.0 4.0 58 58
r 0.626 0 2 cbr 1000 ------- 1 0.0 4.0 59 59
+ 0.626 2 3 cbr 1000 ------- 1 0.0 4.0 59 59
d 0.626 2 3 cbr 1000 ------- 1 0.0 4.0 59 59
r 0.638 2 3 cbr 1000 ------- 1 0.0 4.0 15 15
h 0.638 3 6 cbr 1000 ------- 1 0.0 4.0 15 15
+ 0.638 3 6 cbr 1000 ------- 1 0.0 4.0 14 14
- 0.638 3 6 cbr 1000 ------- 1 0.0 4.0 14 14
+ 0.64 0 2 cbr 1000 ------- 1 0.0 4.0 60 60
- 0.64 0 2 cbr 1000 ------- 1 0.0 4.0 60 60
+ 0.64 0 2 cbr 1000 ------- 1 0.0 4.0 61 61
+ 0.64 0 2 cbr 1000 ------- 1 0.0 4.0 62 62
+ 0.64 0 2 cbr 1000 ------- 1 0.0 4.0 63 63
- 0.644 0 2 cbr 1000 ------- 1 0.0 4.0 61 61
- 0.648 0 2 cbr 1000 ------- 1 0.0 4.0 62 62
- 0.652 0 2 cbr 1000 ------- 1 0.0 4.0 63 63
r 0.654 0 2 cbr 1000 ------- 1 0.0 4.0 60 60
+ 0.654 2 3 cbr 1000 ------- 1 0.0 4.0 60 60
d 0.654 2 3 cbr 1000 ------- 1 0.0 4.0 60 60
r 0.654228 6 4 cbr 1000 ------- 1 0.0 4.0 12 12
- 0.658 2 3 cbr 1000 ------- 1 0.0 4.0 25 25
r 0.658 0 2 cbr 1000 ------- 1 0.0 4.0 61 61
+ 0.658 2 3 cbr 1000 ------- 1 0.0 4.0 61 61
r 0.662 0 2 cbr 1000 ------- 1 0.0 4.0 62 62
+ 0.662 2 3 cbr 1000 ------- 1 0.0 4.0 62 62
d 0.662 2 3 cbr 1000 ------- 1 0.0 4.0 62 62
r 0.666 0 2 cbr 1000 ------- 1 0.0 4.0 63 63
+ 0.666 2 3 cbr 1000 ------- 1 0.0 4.0 63 63
d 0.666 2 3 cbr 1000 ------- 1 0.0 4.0 63 63
r 0.678 2 3 cbr 1000 ------- 1 0.0 4.0 16 16
h 0.678 3 6 cbr 1000 ------- 1 0.0 4.0 16 16
+ 0.678 3 6 cbr 1000 ------- 1 0.0 4.0 15 15
- 0.678 3 6 cbr 1000 ------- 1 0.0 4.0 15 15
+ 0.68 0 2 cbr 1000 ------- 1 0.0 4.0 64 64
- 0.68 0 2 cbr 1000 ------- 1 0.0 4.0 64 64
+ 0.68 0 2 cbr 1000 ------- 1 0.0 4.0 65 65
+ 0.68 0 2 cbr 1000 ------- 1 0.0 4.0 66 66
+ 0.68 0 2 cbr 1000 ------- 1 0.0 4.0 67 67
- 0.684 0 2 cbr 1000 ------- 1 0.0 4.0 65 65
- 0.688 0 2 cbr 1000 ------- 1 0.0 4.0 66 66
- 0.692 0 2 cbr 1000 ------- 1 0.0 4.0 67 67
r 0.694 0 2 cbr 1000 ------- 1 0.0 4.0 64 64
+ 0.694 2 3 cbr 1000 ------- 1 0.0 4.0 64 64
d 0.694 2 3 cbr 1000 ------- 1 0.0 4.0 64 64
r 0.694228 6 4 cbr 1000 ------- 1 0.0 4.0 14 14
- 0.698 2 3 cbr 1000 ------- 1 0.0 4.0 29 29
r 0.698 0 2 cbr 1000 ------- 1 0.0 4.0 65 65
+ 0.698 2 3 cbr 1000 ------- 1 0.0 4.0 65 65
r 0.702 0 2 cbr 1000 ------- 1 0.0 4.0 66 66
d 0.702 2 3 cbr 1000 ------- 1 0.0 4.0 66 66
r 0.706 0 2 cbr 1000 ------- 1 0.0 4.0 67 67
+ 0.706 2 3 cbr 1000 ------- 1 0.0 4.0 67 67
d 0.706 2 3 cbr 1000 ------- 1 0.0 4.0 67 67
r 0.718 2 3 cbr 1000 ------- 1 0.0 4.0 17 17
h 0.718 3 6 cbr 1000 ------- 1 0.0 4.0 17 17
+ 0.718 3 6 cbr 1000 ------- 1 0.0 4.0 16 16
- 0.718 3 6 cbr 1000 ------- 1 0.0 4.0 16 16
+ 0.72 0 2 cbr 1000 ------- 1 0.0 4.0 68 68
- 0.72 0 2 cbr 1000 ------- 1 0.0 4.0 68 68
+ 0.72 0 2 cbr 1000 ------- 1 0.0 4.0 69 69
+ 0.72 0 2 cbr 1000 ------- 1 0.0 4.0 70 70
+ 0.72 0 2 cbr 1000 ------- 1 0.0 4.0 71 71
- 0.724 0 2 cbr 1000 ------- 1 0.0 4.0 69 69
- 0.728 0 2 cbr 1000 ------- 1 0.0 4.0 70 70
- 0.732 0 2 cbr 1000 ------- 1 0.0 4.0 71 71
r 0.734 0 2 cbr 1000 ------- 1 0.0 4.0 68 68
d 0.734 2 3 cbr 1000 ------- 1 0.0 4.0 68 68
r 0.734228 6 4 cbr 1000 ------- 1 0.0 4.0 15 15
- 0.738 2 3 cbr 1000 ------- 1 0.0 4.0 33 33
r 0.738 0 2 cbr 1000 ------- 1 0.0 4.0 69 69
+ 0.738 2 3 cbr 1000 ------- 1 0.0 4.0 69 69
r 0.742 0 2 cbr 1000 ------- 1 0.0 4.0 70 70
+ 0.742 2 3 cbr 1000 ------- 1 0.0 4.0 70 70
d 0.742 2 3 cbr 1000 ------- 1 0.0 4.0 70 70
r 0.746 0 2 cbr 1000 ------- 1 0.0 4.0 71 71
+ 0.746 2 3 cbr 1000 ------- 1 0.0 4.0 71 71
d 0.746 2 3 cbr 1000 ------- 1 0.0 4.0 71 71
r 0.758 2 3 cbr 1000 ------- 1 0.0 4.0 21 21
h 0.758 3 6 cbr 1000 ------- 1 0.0 4.0 21 21
+ 0.758 3 6 cbr 1000 ------- 1 0.0 4.0 17 17
- 0.758 3 6 cbr 1000 ------- 1 0.0 4.0 17 17
+ 0.76 0 2 cbr 1000 ------- 1 0.0 4.0 72 72
- 0.76 0 2 cbr 1000 ------- 1 0.0 4.0 72 72
+ 0.76 0 2 cbr 1000 ------- 1 0.0 4.0 73 73
+ 0.76 0 2 cbr 1000 ------- 1 0.0 4.0 74 74
+ 0.76 0 2 cbr 1000 ------- 1 0.0 4.0 75 75
- 0.764 0 2 cbr 1000 ------- 1 0.0 4.0 73 73
- 0.768 0 2 cbr 1000 ------- 1 0.0 4.0 74 74
- 0.772 0 2 cbr 1000 ------- 1 0.0 4.0 75 75
r 0.774 0 2 cbr 1000 ------- 1 0.0 4.0 72 72
+ 0.774 2 3 cbr 1000 ------- 1 0.0 4.0 72 72
d 0.774 2 3 cbr 1000 ------- 1 0.0 4.0 72 72
r 0.774228 6 4 cbr 1000 ------- 1 0.0 4.0 16 16
- 0.778 2 3 cbr 1000 ------- 1 0.0 4.0 37 37
r 0.778 0 2 cbr 1000 ------- 1 0.0 4.0 73 73
d 0.778 2 3 cbr 1000 ------- 1 0.0 4.0 73 73
r 0.782 0 2 cbr 1000 ------- 1 0.0 4.0 74 74
+ 0.782 2 3 cbr 1000 ------- 1 0.0 4.0 74 74
r 0.786 0 2 cbr 1000 ------- 1 0.0 4.0 75 75
+ 0.786 2 3 cbr 1000 ------- 1 0.0 4.0 75 75
d 0.786 2 3 cbr 1000 ------- 1 0.0 4.0 75 75
r 0.798 2 3 cbr 1000 ------- 1 0.0 4.0 25 25
h 0.798 3 6 cbr 1000 ------- 1 0.0 4.0 25 25
+ 0.798 3 6 cbr 1000 ------- 1 0.0 4.0 21 21
- 0.798 3 6 cbr 1000 ------- 1 0.0 4.0 21 21
+ 0.8 0 2 cbr 1000 ------- 1 0.0 4.0 76 76
- 0.8 0 2 cbr 1000 ------- 1 0.0 4.0 76 76
+ 0.8 0 2 cbr 1000 ------- 1 0.0 4.0 77 77
+ 0.8 0 2 cbr 1000 ------- 1 0.0 4.0 78 78
+ 0.8 0 2 cbr 1000 ------- 1 0.0 4.0 79 79
- 0.804 0 2 cbr 1000 ------- 1 0.0 4.0 77 77
- 0.808 0 2 cbr 1000 ------- 1 0.0 4.0 78 78
- 0.812 0 2 cbr 1000 ------- 1 0.0 4.0 79 79
r 0.814 0 2 cbr 1000 ------- 1 0.0 4.0 76 76
+ 0.814 2 3 cbr 1000 ------- 1 0.0 4.0 76 76
d 0.814 2 3 cbr 1000 ------- 1 0.0 4.0 76 76
r 0.814228 6 4 cbr 1000 ------- 1 0.0 4.0 17 17
- 0.818 2 3 cbr 1000 ------- 1 0.0 4.0 41 41
r 0.818 0 2 cbr 1000 ------- 1 0.0 4.0 77 77
+ 0.818 2 3 cbr 1000 ------- 1 0.0 4.0 77 77
r 0.822 0 2 cbr 1000 ------- 1 0.0 4.0 78 78
+ 0.822 2 3 cbr 1000 ------- 1 0.0 4.0 78 78
d 0.822 2 3 cbr 1000 ------- 1 0.0 4.0 78 78
r 0.826 0 2 cbr 1000 ------- 1 0.0 4.0 79 79
+ 0.826 2 3 cbr 1000 ------- 1 0.0 4.0 79 79
d 0.826 2 3 cbr 1000 ------- 1 0.0 4.0 79 79
r 0.838 2 3 cbr 1000 ------- 1 0.0 4.0 29 29
h 0.838 3 6 cbr 1000 ------- 1 0.0 4.0 29 29
+ 0.838 3 6 cbr 1000 ------- 1 0.0 4.0 25 25
- 0.838 3 6 cbr 1000 ------- 1 0.0 4.0 25 25
+ 0.84 0 2 cbr 1000 ------- 1 0.0 4.0 80 80
- 0.84 0 2 cbr 1000 ------- 1 0.0 4.0 80 80
+ 0.84 0 2 cbr 1000 ------- 1 0.0 4.0 81 81
+ 0.84 0 2 cbr 1000 ------- 1 0.0 4.0 82 82
+ 0.84 0 2 cbr 1000 ------- 1 0.0 4.0 83 83
- 0.844 0 2 cbr 1000 ------- 1 0.0 4.0 81 81
- 0.848 0 2 cbr 1000 ------- 1 0.0 4.0 82 82
- 0.852 0 2 cbr 1000 ------- 1 0.0 4.0 83 83
r 0.854 0 2 cbr 1000 ------- 1 0.0 4.0 80 80
+ 0.854 2 3 cbr 1000 ------- 1 0.0 4.0 80 80
d 0.854 2 3 cbr 1000 ------- 1 0.0 4.0 80 80
r 0.854228 6 4 cbr 1000 ------- 1 0.0 4.0 21 21
- 0.858 2 3 cbr 1000 ------- 1 0.0 4.0 45 45
r 0.858 0 2 cbr 1000 ------- 1 0.0 4.0 81 81
+ 0.858 2 3 cbr 1000 ------- 1 0.0 4.0 81 81
r 0.862 0 2 cbr 1000 ------- 1 0.0 4.0 82 82
+ 0.862 2 3 cbr 1000 ------- 1 0.0 4.0 82 82
d 0.862 2 3 cbr 1000 ------- 1 0.0 4.0 82 82
r 0.866 0 2 cbr 1000 ------- 1 0.0 4.0 83 83
+ 0.866 2 3 cbr 1000 ------- 1 0.0 4.0 83 83
d 0.866 2 3 cbr 1000 ------- 1 0.0 4.0 83 83
r 0.878 2 3 cbr 1000 ------- 1 0.0 4.0 33 33
h 0.878 3 6 cbr 1000 ------- 1 0.0 4.0 33 33
+ 0.878 3 6 cbr 1000 ------- 1 0.0 4.0 29 29
- 0.878 3 6 cbr 1000 ------- 1 0.0 4.0 29 29
+ 0.88 0 2 cbr 1000 ------- 1 0.0 4.0 84 84
- 0.88 0 2 cbr 1000 ------- 1 0.0 4.0 84 84
+ 0.88 0 2 cbr 1000 ------- 1 0.0 4.0 85 85
+ 0.88 0 2 cbr 1000 ------- 1 0.0 4.0 86 86
+ 0.88 0 2 cbr 1000 ------- 1 0.0 4.0 87 87
- 0.884 0 2 cbr 1000 ------- 1 0.0 4.0 85 85
- 0.888 0 2 cbr 1000 ------- 1 0.0 4.0 86 86
- 0.892 0 2 cbr 1000 ------- 1 0.0 4.0 87 87
r 0.894 0 2 cbr 1000 ------- 1 0.0 4.0 84 84
+ 0.894 2 3 cbr 1000 ------- 1 0.0 4.0 84 84
d 0.894 2 3 cbr 1000 ------- 1 0.0 4.0 84 84
r 0.894228 6 4 cbr 1000 ------- 1 0.0 4.0 25 25
- 0.898 2 3 cbr 1000 ------- 1 0.0 4.0 49 49
r 0.898 0 2 cbr 1000 ------- 1 0.0 4.0 85 85
+ 0.898 2 3 cbr 1000 ------- 1 0.0 4.0 85 85
r 0.902 0 2 cbr 1000 ------- 1 0.0 4.0 86 86
+ 0.902 2 3 cbr 1000 ------- 1 0.0 4.0 86 86
d 0.902 2 3 cbr 1000 ------- 1 0.0 4.0 86 86
r 0.906 0 2 cbr 1000 ------- 1 0.0 4.0 87 87
+ 0.906 2 3 cbr 1000 ------- 1 0.0 4.0 87 87
d 0.906 2 3 cbr 1000 ------- 1 0.0 4.0 87 87
r 0.918 2 3 cbr 1000 ------- 1 0.0 4.0 37 37
h 0.918 3 6 cbr 1000 ------- 1 0.0 4.0 37 37
+ 0.918 3 6 cbr 1000 ------- 1 0.0 4.0 33 33
- 0.918 3 6 cbr 1000 ------- 1 0.0 4.0 33 33
+ 0.92 0 2 cbr 1000 ------- 1 0.0 4.0 88 88
- 0.92 0 2 cbr 1000 ------- 1 0.0 4.0 88 88
+ 0.92 0 2 cbr 1000 ------- 1 0.0 4.0 89 89
+ 0.92 0 2 cbr 1000 ------- 1 0.0 4.0 90 90
+ 0.92 0 2 cbr 1000 ------- 1 0.0 4.0 91 91
- 0.924 0 2 cbr 1000 ------- 1 0.0 4.0 89 89
- 0.928 0 2 cbr 1000 ------- 1 0.0 4.0 90 90
- 0.932 0 2 cbr 1000 ------- 1 0.0 4.0 91 91
r 0.934 0 2 cbr 1000 ------- 1 0.0 4.0 88 88
+ 0.934 2 3 cbr 1000 ------- 1 0.0 4.0 88 88
d 0.934 2 3 cbr 1000 ------- 1 0.0 4.0 88 88
r 0.934228 6 4 cbr 1000 ------- 1 0.0 4.0 29 29
- 0.938 2 3 cbr 1000 ------- 1 0.0 4.0 53 53
r 0.938 0 2 cbr 1000 ------- 1 0.0 4.0 89 89
+ 0.938 2 3 cbr 1000 ------- 1 0.0 4.0 89 89
r 0.942 0 2 cbr 1000 ------- 1 0.0 4.0 90 90
d 0.942 2 3 cbr 1000 ------- 1 0.0 4.0 90 90
r 0.946 0 2 cbr 1000 ------- 1 0.0 4.0 91 91
d 0.946 2 3 cbr 1000 ------- 1 0.0 4.0 91 91
r 0.958 2 3 cbr 1000 ------- 1 0.0 4.0 41 41
h 0.958 3 6 cbr 1000 ------- 1 0.0 4.0 41 41
+ 0.958 3 6 cbr 1000 ------- 1 0.0 4.0 37 37
- 0.958 3 6 cbr 1000 ------- 1 0.0 4.0 37 37
+ 0.96 0 2 cbr 1000 ------- 1 0.0 4.0 92 92
- 0.96 0 2 cbr 1000 ------- 1 0.0 4.0 92 92
+ 0.96 0 2 cbr 1000 ------- 1 0.0 4.0 93 93
+ 0.96 0 2 cbr 1000 ------- 1 0.0 4.0 94 94
+ 0.96 0 2 cbr 1000 ------- 1 0.0 4.0 95 95
- 0.964 0 2 cbr 1000 ------- 1 0.0 4.0 93 93
- 0.968 0 2 cbr 1000 ------- 1 0.0 4.0 94 94
- 0.972 0 2 cbr 1000 ------- 1 0.0 4.0 95 95
r 0.974 0 2 cbr 1000 ------- 1 0.0 4.0 92 92
+ 0.974 2 3 cbr 1000 ------- 1 0.0 4.0 92 92
d 0.974 2 3 cbr 1000 ------- 1 0.0 4.0 92 92
r 0.974228 6 4 cbr 1000 ------- 1 0.0 4.0 33 33
- 0.978 2 3 cbr 1000 ------- 1 0.0 4.0 57 57
r 0.978 0 2 cbr 1000 ------- 1 0.0 4.0 93 93
+ 0.978 2 3 cbr 1000 ------- 1 0.0 4.0 93 93
r 0.982 0 2 cbr 1000 ------- 1 0.0 4.0 94 94
+ 0.982 2 3 cbr 1000 ------- 1 0.0 4.0 94 94
d 0.982 2 3 cbr 1000 ------- 1 0.0 4.0 94 94
r 0.986 0 2 cbr 1000 ------- 1 0.0 4.0 95 95
d 0.986 2 3 cbr 1000 ------- 1 0.0 4.0 95 95
r 0.998 2 3 cbr 1000 ------- 1 0.0 4.0 45 45
h 0.998 3 6 cbr 1000 ------- 1 0.0 4.0 45 45
+ 0.998 3 6 cbr 1000 ------- 1 0.0 4.0 41 41
- 0.998 3 6 cbr 1000 ------- 1 0.0 4.0 41 41
+ 1 0 2 cbr 1000 ------- 1 0.0 4.0 96 96
- 1 0 2 cbr 1000 ------- 1 0.0 4.0 96 96
+ 1 0 2 cbr 1000 ------- 1 0.0 4.0 97 97
+ 1 0 2 cbr 1000 ------- 1 0.0 4.0 98 98
+ 1 0 2 cbr 1000 ------- 1 0.0 4.0 99 99
- 1.004 0 2 cbr 1000 ------- 1 0.0 4.0 97 97
- 1.008 0 2 cbr 1000 ------- 1 0.0 4.0 98 98
- 1.012 0 2 cbr 1000 ------- 1 0.0 4.0 99 99
r 1.014 0 2 cbr 1000 ------- 1 0.0 4.0 96 96
+ 1.014 2 3 cbr 1000 ------- 1 0.0 4.0 96 96
d 1.014 2 3 cbr 1000 ------- 1 0.0 4.0 96 96
r 1.014228 6 4 cbr 1000 ------- 1 0.0 4.0 37 37
- 1.018 2 3 cbr 1000 ------- 1 0.0 4.0 61 61
r 1.018 0 2 cbr 1000 ------- 1 0.0 4.0 97 97
+ 1.018 2 3 cbr 1000 ------- 1 0.0 4.0 97 97
r 1.022 0 2 cbr 1000 ------- 1 0.0 4.0 98 98
d 1.022 2 3 cbr 1000 ------- 1 0.0 4.0 98 98
r 1.026 0 2 cbr 1000 ------- 1 0.0 4.0 99 99
+ 1.026 2 3 cbr 1000 ------- 1 0.0 4.0 99 99
d 1.026 2 3 cbr 1000 ------- 1 0.0 4.0 99 99
r 1.038 2 3 cbr 1000 ------- 1 0.0 4.0 49 49
h 1.038 3 6 cbr 1000 ------- 1 0.0 4.0 49 49
+ 1.038 3 6 cbr 1000 ------- 1 0.0 4.0 45 45
- 1.038 3 6 cbr 1000 ------- 1 0.0 4.0 45 45
+ 1.04 0 2 cbr 1000 ------- 1 0.0 4.0 100 100
- 1.04 0 2 cbr 1000 ------- 1 0.0 4.0 100 100
+ 1.04 0 2 cbr 1000 ------- 1 0.0 4.0 101 101
+ 1.04 0 2 cbr 1000 ------- 1 0.0 4.0 102 102
+ 1.04 0 2 cbr 1000 ------- 1 0.0 4.0 103 103
- 1.044 0 2 cbr 1000 ------- 1 0.0 4.0 101 101
- 1.048 0 2 cbr 1000 ------- 1 0.0 4.0 102 102
- 1.052 0 2 cbr 1000 ------- 1 0.0 4.0 103 103
r 1.054 0 2 cbr 1000 ------- 1 0.0 4.0 100 100
+ 1.054 2 3 cbr 1000 ------- 1 0.0 4.0 100 100
d 1.054 2 3 cbr 1000 ------- 1 0.0 4.0 100 100
r 1.054228 6 4 cbr 1000 ------- 1 0.0 4.0 41 41
- 1.058 2 3 cbr 1000 ------- 1 0.0 4.0 65 65
r 1.058 0 2 cbr 1000 ------- 1 0.0 4.0 101 101
+ 1.058 2 3 cbr 1000 ------- 1 0.0 4.0 101 101
r 1.062 0 2 cbr 1000 ------- 1 0.0 4.0 102 102
+ 1.062 2 3 cbr 1000 ------- 1 0.0 4.0 102 102
d 1.062 2 3 cbr 1000 ------- 1 0.0 4.0 102 102
r 1.066 0 2 cbr 1000 ------- 1 0.0 4.0 103 103
+ 1.066 2 3 cbr 1000 ------- 1 0.0 4.0 103 103
d 1.066 2 3 cbr 1000 ------- 1 0.0 4.0 103 103
r 1.078 2 3 cbr 1000 ------- 1 0.0 4.0 53 53
h 1.078 3 6 cbr 1000 ------- 1 0.0 4.0 53 53
+ 1.078 3 6 cbr 1000 ------- 1 0.0 4.0 49 49
- 1.078 3 6 cbr 1000 ------- 1 0.0 4.0 49 49
+ 1.08 0 2 cbr 1000 ------- 1 0.0 4.0 104 104
- 1.08 0 2 cbr 1000 ------- 1 0.0 4.0 104 104
+ 1.08 0 2 cbr 1000 ------- 1 0.0 4.0 105 105
+ 1.08 0 2 cbr 1000 ------- 1 0.0 4.0 106 106
+ 1.08 0 2 cbr 1000 ------- 1 0.0 4.0 107 107
- 1.084 0 2 cbr 1000 ------- 1 0.0 4.0 105 105
- 1.088 0 2 cbr 1000 ------- 1 0.0 4.0 106 106
- 1.092 0 2 cbr 1000 ------- 1 0.0 4.0 107 107
r 1.094 0 2 cbr 1000 ------- 1 0.0 4.0 104 104
d 1.094 2 3 cbr 1000 ------- 1 0.0 4.0 104 104
r 1.094228 6 4 cbr 1000 ------- 1 0.0 4.0 45 45
- 1.098 2 3 cbr 1000 ------- 1 0.0 4.0 69 69
r 1.098 0 2 cbr 1000 ------- 1 0.0 4.0 105 105
+ 1.098 2 3 cbr 1000 ------- 1 0.0 4.0 105 105
r 1.102 0 2 cbr 1000 ------- 1 0.0 4.0 106 106
+ 1.102 2 3 cbr 1000 ------- 1 0.0 4.0 106 106
d 1.102 2 3 cbr 1000 ------- 1 0.0 4.0 106 106
r 1.106 0 2 cbr 1000 ------- 1 0.0 4.0 107 107
+ 1.106 2 3 cbr 1000 ------- 1 0.0 4.0 107 107
d 1.106 2 3 cbr 1000 ------- 1 0.0 4.0 107 107
r 1.118 2 3 cbr 1000 ------- 1 0.0 4.0 57 57
h 1.118 3 6 cbr 1000 ------- 1 0.0 4.0 57 57
+ 1.118 3 6 cbr 1000 ------- 1 0.0 4.0 53 53
- 1.118 3 6 cbr 1000 ------- 1 0.0 4.0 53 53
+ 1.12 0 2 cbr 1000 ------- 1 0.0 4.0 108 108
- 1.12 0 2 cbr 1000 ------- 1 0.0 4.0 108 108
+ 1.12 0 2 cbr 1000 ------- 1 0.0 4.0 109 109
+ 1.12 0 2 cbr 1000 ------- 1 0.0 4.0 110 110
+ 1.12 0 2 cbr 1000 ------- 1 0.0 4.0 111 111
- 1.124 0 2 cbr 1000 ------- 1 0.0 4.0 109 109
- 1.128 0 2 cbr 1000 ------- 1 0.0 4.0 110 110
- 1.132 0 2 cbr 1000 ------- 1 0.0 4.0 111 111
r 1.134 0 2 cbr 1000 ------- 1 0.0 4.0 108 108
+ 1.134 2 3 cbr 1000 ------- 1 0.0 4.0 108 108
d 1.134 2 3 cbr 1000 ------- 1 0.0 4.0 108 108
r 1.134228 6 4 cbr 1000 ------- 1 0.0 4.0 49 49
- 1.138 2 3 cbr 1000 ------- 1 0.0 4.0 74 74
r 1.138 0 2 cbr 1000 ------- 1 0.0 4.0 109 109
+ 1.138 2 3 cbr 1000 ------- 1 0.0 4.0 109 109
r 1.142 0 2 cbr 1000 ------- 1 0.0 4.0 110 110
+ 1.142 2 3 cbr 1000 ------- 1 0.0 4.0 110 110
d 1.142 2 3 cbr 1000 ------- 1 0.0 4.0 110 110
r 1.146 0 2 cbr 1000 ------- 1 0.0 4.0 111 111
d 1.146 2 3 cbr 1000 ------- 1 0.0 4.0 111 111
r 1.158 2 3 cbr 1000 ------- 1 0.0 4.0 61 61
h 1.158 3 6 cbr 1000 ------- 1 0.0 4.0 61 61
+ 1.158 3 6 cbr 1000 ------- 1 0.0 4.0 57 57
- 1.158 3 6 cbr 1000 ------- 1 0.0 4.0 57 57
+ 1.16 0 2 cbr 1000 ------- 1 0.0 4.0 112 112
- 1.16 0 2 cbr 1000 ------- 1 0.0 4.0 112 112
+ 1.16 0 2 cbr 1000 ------- 1 0.0 4.0 113 113
+ 1.16 0 2 cbr 1000 ------- 1 0.0 4.0 114 114
+ 1.16 0 2 cbr 1000 ------- 1 0.0 4.0 115 115
- 1.164 0 2 cbr 1000 ------- 1 0.0 4.0 113 113
- 1.168 0 2 cbr 1000 ------- 1 0.0 4.0 114 114
- 1.172 0 2 cbr 1000 ------- 1 0.0 4.0 115 115
r 1.174 0 2 cbr 1000 ------- 1 0.0 4.0 112 112
+ 1.174 2 3 cbr 1000 ------- 1 0.0 4.0 112 112
d 1.174 2 3 cbr 1000 ------- 1 0.0 4.0 112 112
r 1.174228 6 4 cbr 1000 ------- 1 0.0 4.0 53 53
- 1.178 2 3 cbr 1000 ------- 1 0.0 4.0 77 77
r 1.178 0 2 cbr 1000 ------- 1 0.0 4.0 113 113
+ 1.178 2 3 cbr 1000 ------- 1 0.0 4.0 113 113