+ 0.1 0 1 ping 64 ------- 1 0.0 5.0 -1 0
- 0.1 0 1 ping 64 ------- 1 0.0 5.0 -1 0
r 0.15512 0 1 ping 64 ------- 1 0.0 5.0 -1 0
+ 0.15512 1 2 ping 64 ------- 1 0.0 5.0 -1 0
- 0.15512 1 2 ping 64 ------- 1 0.0 5.0 -1 0
+ 0.2 0 1 ping 64 ------- 1 0.0 5.0 -1 1
- 0.2 0 1 ping 64 ------- 1 0.0 5.0 -1 1
+ 0.2 3 2 tcp 40 ------- 4 3.0 1.0 0 2
- 0.2 3 2 tcp 40 ------- 4 3.0 1.0 0 2
r 0.21024 1 2 ping 64 ------- 1 0.0 5.0 -1 0
+ 0.21024 2 3 ping 64 ------- 1 0.0 5.0 -1 0
- 0.21024 2 3 ping 64 ------- 1 0.0 5.0 -1 0
r 0.2532 3 2 tcp 40 ------- 4 3.0 1.0 0 2
+ 0.2532 2 1 tcp 40 ------- 4 3.0 1.0 0 2
- 0.2532 2 1 tcp 40 ------- 4 3.0 1.0 0 2
r 0.25512 0 1 ping 64 ------- 1 0.0 5.0 -1 1
+ 0.25512 1 2 ping 64 ------- 1 0.0 5.0 -1 1
- 0.25512 1 2 ping 64 ------- 1 0.0 5.0 -1 1
r 0.26536 2 3 ping 64 ------- 1 0.0 5.0 -1 0
+ 0.26536 3 4 ping 64 ------- 1 0.0 5.0 -1 0
- 0.26536 3 4 ping 64 ------- 1 0.0 5.0 -1 0
+ 0.3 0 1 ping 64 ------- 1 0.0 5.0 -1 3
- 0.3 0 1 ping 64 ------- 1 0.0 5.0 -1 3
+ 0.3 0 1 ping 64 ------- 1 0.0 5.0 -1 4
- 0.30512 0 1 ping 64 ------- 1 0.0 5.0 -1 4
r 0.3064 2 1 tcp 40 ------- 4 3.0 1.0 0 2
+ 0.3064 1 2 ack 40 ------- 4 1.0 3.0 0 5
- 0.3064 1 2 ack 40 ------- 4 1.0 3.0 0 5
r 0.31024 1 2 ping 64 ------- 1 0.0 5.0 -1 1
+ 0.31024 2 3 ping 64 ------- 1 0.0 5.0 -1 1
- 0.31024 2 3 ping 64 ------- 1 0.0 5.0 -1 1
r 0.32048 3 4 ping 64 ------- 1 0.0 5.0 -1 0
+ 0.32048 4 5 ping 64 ------- 1 0.0 5.0 -1 0
- 0.32048 4 5 ping 64 ------- 1 0.0 5.0 -1 0
r 0.35512 0 1 ping 64 ------- 1 0.0 5.0 -1 3
+ 0.35512 1 2 ping 64 ------- 1 0.0 5.0 -1 3
- 0.35512 1 2 ping 64 ------- 1 0.0 5.0 -1 3
r 0.3596 1 2 ack 40 ------- 4 1.0 3.0 0 5
+ 0.3596 2 3 ack 40 ------- 4 1.0 3.0 0 5
- 0.3596 2 3 ack 40 ------- 4 1.0 3.0 0 5
r 0.36024 0 1 ping 64 ------- 1 0.0 5.0 -1 4
+ 0.36024 1 2 ping 64 ------- 1 0.0 5.0 -1 4
- 0.36024 1 2 ping 64 ------- 1 0.0 5.0 -1 4
r 0.36536 2 3 ping 64 ------- 1 0.0 5.0 -1 1
+ 0.36536 3 4 ping 64 ------- 1 0.0 5.0 -1 1
- 0.36536 3 4 ping 64 ------- 1 0.0 5.0 -1 1
r 0.3756 4 5 ping 64 ------- 1 0.0 5.0 -1 0
+ 0.3756 5 4 ping 64 ------- 2 5.0 0.0 -1 6
- 0.3756 5 4 ping 64 ------- 2 5.0 0.0 -1 6
+ 0.4 0 1 ping 64 ------- 1 0.0 5.0 -1 7
- 0.4 0 1 ping 64 ------- 1 0.0 5.0 -1 7
+ 0.4 2 3 tcp 40 ------- 3 2.0 4.0 0 8
- 0.4 2 3 tcp 40 ------- 3 2.0 4.0 0 8
r 0.41024 1 2 ping 64 ------- 1 0.0 5.0 -1 3
+ 0.41024 2 3 ping 64 ------- 1 0.0 5.0 -1 3
- 0.41024 2 3 ping 64 ------- 1 0.0 5.0 -1 3
r 0.4128 2 3 ack 40 ------- 4 1.0 3.0 0 5
+ 0.4128 3 2 tcp 1040 ------- 4 3.0 1.0 1 9
- 0.4128 3 2 tcp 1040 ------- 4 3.0 1.0 1 9
+ 0.4128 3 2 tcp 1040 ------- 4 3.0 1.0 2 10
r 0.41536 1 2 ping 64 ------- 1 0.0 5.0 -1 4
+ 0.41536 2 3 ping 64 ------- 1 0.0 5.0 -1 4
- 0.41536 2 3 ping 64 ------- 1 0.0 5.0 -1 4
r 0.42048 3 4 ping 64 ------- 1 0.0 5.0 -1 1
+ 0.42048 4 5 ping 64 ------- 1 0.0 5.0 -1 1
- 0.42048 4 5 ping 64 ------- 1 0.0 5.0 -1 1
r 0.43072 5 4 ping 64 ------- 2 5.0 0.0 -1 6
+ 0.43072 4 3 ping 64 ------- 2 5.0 0.0 -1 6
- 0.43072 4 3 ping 64 ------- 2 5.0 0.0 -1 6
r 0.4532 2 3 tcp 40 ------- 3 2.0 4.0 0 8
+ 0.4532 3 4 tcp 40 ------- 3 2.0 4.0 0 8
- 0.4532 3 4 tcp 40 ------- 3 2.0 4.0 0 8
r 0.45512 0 1 ping 64 ------- 1 0.0 5.0 -1 7
+ 0.45512 1 2 ping 64 ------- 1 0.0 5.0 -1 7
- 0.45512 1 2 ping 64 ------- 1 0.0 5.0 -1 7
r 0.46536 2 3 ping 64 ------- 1 0.0 5.0 -1 3
+ 0.46536 3 4 ping 64 ------- 1 0.0 5.0 -1 3
- 0.46536 3 4 ping 64 ------- 1 0.0 5.0 -1 3
r 0.47048 2 3 ping 64 ------- 1 0.0 5.0 -1 4
+ 0.47048 3 4 ping 64 ------- 1 0.0 5.0 -1 4
- 0.47048 3 4 ping 64 ------- 1 0.0 5.0 -1 4
r 0.4756 4 5 ping 64 ------- 1 0.0 5.0 -1 1
+ 0.4756 5 4 ping 64 ------- 2 5.0 0.0 -1 11
- 0.4756 5 4 ping 64 ------- 2 5.0 0.0 -1 11
r 0.48584 4 3 ping 64 ------- 2 5.0 0.0 -1 6
+ 0.48584 3 2 ping 64 ------- 2 5.0 0.0 -1 6
d 0.48584 3 2 ping 64 ------- 2 5.0 0.0 -1 6
- 0.496 3 2 tcp 1040 ------- 4 3.0 1.0 2 10
+ 0.5 0 1 ping 64 ------- 1 0.0 5.0 -1 12
- 0.5 0 1 ping 64 ------- 1 0.0 5.0 -1 12
r 0.5064 3 4 tcp 40 ------- 3 2.0 4.0 0 8
+ 0.5064 4 3 ack 40 ------- 3 4.0 2.0 0 13
- 0.5064 4 3 ack 40 ------- 3 4.0 2.0 0 13
r 0.51024 1 2 ping 64 ------- 1 0.0 5.0 -1 7
+ 0.51024 2 3 ping 64 ------- 1 0.0 5.0 -1 7
- 0.51024 2 3 ping 64 ------- 1 0.0 5.0 -1 7
r 0.52048 3 4 ping 64 ------- 1 0.0 5.0 -1 3
+ 0.52048 4 5 ping 64 ------- 1 0.0 5.0 -1 3
- 0.52048 4 5 ping 64 ------- 1 0.0 5.0 -1 3
r 0.5256 3 4 ping 64 ------- 1 0.0 5.0 -1 4
+ 0.5256 4 5 ping 64 ------- 1 0.0 5.0 -1 4
- 0.5256 4 5 ping 64 ------- 1 0.0 5.0 -1 4
r 0.53072 5 4 ping 64 ------- 2 5.0 0.0 -1 11
+ 0.53072 4 3 ping 64 ------- 2 5.0 0.0 -1 11
- 0.53072 4 3 ping 64 ------- 2 5.0 0.0 -1 11
r 0.546 3 2 tcp 1040 ------- 4 3.0 1.0 1 9
+ 0.546 2 1 tcp 1040 ------- 4 3.0 1.0 1 9
- 0.546 2 1 tcp 1040 ------- 4 3.0 1.0 1 9
r 0.55512 0 1 ping 64 ------- 1 0.0 5.0 -1 12
+ 0.55512 1 2 ping 64 ------- 1 0.0 5.0 -1 12
- 0.55512 1 2 ping 64 ------- 1 0.0 5.0 -1 12
r 0.5596 4 3 ack 40 ------- 3 4.0 2.0 0 13
+ 0.5596 3 2 ack 40 ------- 3 4.0 2.0 0 13
r 0.56536 2 3 ping 64 ------- 1 0.0 5.0 -1 7
+ 0.56536 3 4 ping 64 ------- 1 0.0 5.0 -1 7
- 0.56536 3 4 ping 64 ------- 1 0.0 5.0 -1 7
r 0.5756 4 5 ping 64 ------- 1 0.0 5.0 -1 3
+ 0.5756 5 4 ping 64 ------- 2 5.0 0.0 -1 14
- 0.5756 5 4 ping 64 ------- 2 5.0 0.0 -1 14
- 0.5792 3 2 ack 40 ------- 3 4.0 2.0 0 13
r 0.58072 4 5 ping 64 ------- 1 0.0 5.0 -1 4
+ 0.58072 5 4 ping 64 ------- 2 5.0 0.0 -1 15
- 0.58072 5 4 ping 64 ------- 2 5.0 0.0 -1 15
r 0.58584 4 3 ping 64 ------- 2 5.0 0.0 -1 11
+ 0.58584 3 2 ping 64 ------- 2 5.0 0.0 -1 11
- 0.58584 3 2 ping 64 ------- 2 5.0 0.0 -1 11
+ 0.6 0 1 ping 64 ------- 1 0.0 5.0 -1 16
- 0.6 0 1 ping 64 ------- 1 0.0 5.0 -1 16
+ 0.6 0 1 ping 64 ------- 1 0.0 5.0 -1 17
+ 0.6 0 1 ping 64 ------- 1 0.0 5.0 -1 18
+ 0.6 0 1 ping 64 ------- 1 0.0 5.0 -1 19
+ 0.6 0 1 ping 64 ------- 1 0.0 5.0 -1 20
+ 0.6 0 1 ping 64 ------- 1 0.0 5.0 -1 21
+ 0.6 0 1 ping 64 ------- 1 0.0 5.0 -1 22
- 0.60512 0 1 ping 64 ------- 1 0.0 5.0 -1 17
- 0.61024 0 1 ping 64 ------- 1 0.0 5.0 -1 18
r 0.61024 1 2 ping 64 ------- 1 0.0 5.0 -1 12
+ 0.61024 2 3 ping 64 ------- 1 0.0 5.0 -1 12
- 0.61024 2 3 ping 64 ------- 1 0.0 5.0 -1 12
- 0.61536 0 1 ping 64 ------- 1 0.0 5.0 -1 19
- 0.62048 0 1 ping 64 ------- 1 0.0 5.0 -1 20
r 0.62048 3 4 ping 64 ------- 1 0.0 5.0 -1 7
+ 0.62048 4 5 ping 64 ------- 1 0.0 5.0 -1 7
- 0.62048 4 5 ping 64 ------- 1 0.0 5.0 -1 7
- 0.6256 0 1 ping 64 ------- 1 0.0 5.0 -1 21
r 0.6292 3 2 tcp 1040 ------- 4 3.0 1.0 2 10
+ 0.6292 2 1 tcp 1040 ------- 4 3.0 1.0 2 10
- 0.6292 2 1 tcp 1040 ------- 4 3.0 1.0 2 10
- 0.63072 0 1 ping 64 ------- 1 0.0 5.0 -1 22
r 0.63072 5 4 ping 64 ------- 2 5.0 0.0 -1 14
+ 0.63072 4 3 ping 64 ------- 2 5.0 0.0 -1 14
- 0.63072 4 3 ping 64 ------- 2 5.0 0.0 -1 14
r 0.6324 3 2 ack 40 ------- 3 4.0 2.0 0 13
+ 0.6324 2 3 tcp 1040 ------- 3 2.0 4.0 1 23
- 0.6324 2 3 tcp 1040 ------- 3 2.0 4.0 1 23
+ 0.6324 2 3 tcp 1040 ------- 3 2.0 4.0 2 24
r 0.63584 5 4 ping 64 ------- 2 5.0 0.0 -1 15
+ 0.63584 4 3 ping 64 ------- 2 5.0 0.0 -1 15
- 0.63584 4 3 ping 64 ------- 2 5.0 0.0 -1 15
r 0.64096 3 2 ping 64 ------- 2 5.0 0.0 -1 11
+ 0.64096 2 1 ping 64 ------- 2 5.0 0.0 -1 11
r 0.65512 0 1 ping 64 ------- 1 0.0 5.0 -1 16
+ 0.65512 1 2 ping 64 ------- 1 0.0 5.0 -1 16
- 0.65512 1 2 ping 64 ------- 1 0.0 5.0 -1 16
r 0.66024 0 1 ping 64 ------- 1 0.0 5.0 -1 17
+ 0.66024 1 2 ping 64 ------- 1 0.0 5.0 -1 17
- 0.66024 1 2 ping 64 ------- 1 0.0 5.0 -1 17
r 0.66536 0 1 ping 64 ------- 1 0.0 5.0 -1 18
+ 0.66536 1 2 ping 64 ------- 1 0.0 5.0 -1 18
- 0.66536 1 2 ping 64 ------- 1 0.0 5.0 -1 18
r 0.66536 2 3 ping 64 ------- 1 0.0 5.0 -1 12
+ 0.66536 3 4 ping 64 ------- 1 0.0 5.0 -1 12
- 0.66536 3 4 ping 64 ------- 1 0.0 5.0 -1 12
r 0.67048 0 1 ping 64 ------- 1 0.0 5.0 -1 19
+ 0.67048 1 2 ping 64 ------- 1 0.0 5.0 -1 19
- 0.67048 1 2 ping 64 ------- 1 0.0 5.0 -1 19
r 0.6756 0 1 ping 64 ------- 1 0.0 5.0 -1 20
+ 0.6756 1 2 ping 64 ------- 1 0.0 5.0 -1 20
- 0.6756 1 2 ping 64 ------- 1 0.0 5.0 -1 20
r 0.6756 4 5 ping 64 ------- 1 0.0 5.0 -1 7
+ 0.6756 5 4 ping 64 ------- 2 5.0 0.0 -1 25
- 0.6756 5 4 ping 64 ------- 2 5.0 0.0 -1 25
r 0.6792 2 1 tcp 1040 ------- 4 3.0 1.0 1 9
+ 0.6792 1 2 ack 40 ------- 4 1.0 3.0 1 26
r 0.68072 0 1 ping 64 ------- 1 0.0 5.0 -1 21
+ 0.68072 1 2 ping 64 ------- 1 0.0 5.0 -1 21
- 0.68072 1 2 ack 40 ------- 4 1.0 3.0 1 26
- 0.68392 1 2 ping 64 ------- 1 0.0 5.0 -1 21
r 0.68584 0 1 ping 64 ------- 1 0.0 5.0 -1 22
+ 0.68584 1 2 ping 64 ------- 1 0.0 5.0 -1 22
r 0.68584 4 3 ping 64 ------- 2 5.0 0.0 -1 14
+ 0.68584 3 2 ping 64 ------- 2 5.0 0.0 -1 14
- 0.68584 3 2 ping 64 ------- 2 5.0 0.0 -1 14
- 0.68904 1 2 ping 64 ------- 1 0.0 5.0 -1 22
r 0.69096 4 3 ping 64 ------- 2 5.0 0.0 -1 15
+ 0.69096 3 2 ping 64 ------- 2 5.0 0.0 -1 15
- 0.69096 3 2 ping 64 ------- 2 5.0 0.0 -1 15
+ 0.7 0 1 ping 64 ------- 1 0.0 5.0 -1 27
- 0.7 0 1 ping 64 ------- 1 0.0 5.0 -1 27
r 0.71024 1 2 ping 64 ------- 1 0.0 5.0 -1 16
+ 0.71024 2 3 ping 64 ------- 1 0.0 5.0 -1 16
d 0.71024 2 3 ping 64 ------- 1 0.0 5.0 -1 16
- 0.7124 2 1 ping 64 ------- 2 5.0 0.0 -1 11
r 0.71536 1 2 ping 64 ------- 1 0.0 5.0 -1 17
+ 0.71536 2 3 ping 64 ------- 1 0.0 5.0 -1 17
d 0.71536 2 3 ping 64 ------- 1 0.0 5.0 -1 17
- 0.7156 2 3 tcp 1040 ------- 3 2.0 4.0 2 24
r 0.72048 1 2 ping 64 ------- 1 0.0 5.0 -1 18
+ 0.72048 2 3 ping 64 ------- 1 0.0 5.0 -1 18
r 0.72048 3 4 ping 64 ------- 1 0.0 5.0 -1 12
+ 0.72048 4 5 ping 64 ------- 1 0.0 5.0 -1 12
- 0.72048 4 5 ping 64 ------- 1 0.0 5.0 -1 12
r 0.7256 1 2 ping 64 ------- 1 0.0 5.0 -1 19
+ 0.7256 2 3 ping 64 ------- 1 0.0 5.0 -1 19
d 0.7256 2 3 ping 64 ------- 1 0.0 5.0 -1 19
r 0.73072 1 2 ping 64 ------- 1 0.0 5.0 -1 20
+ 0.73072 2 3 ping 64 ------- 1 0.0 5.0 -1 20
d 0.73072 2 3 ping 64 ------- 1 0.0 5.0 -1 20
r 0.73072 5 4 ping 64 ------- 2 5.0 0.0 -1 25
+ 0.73072 4 3 ping 64 ------- 2 5.0 0.0 -1 25
- 0.73072 4 3 ping 64 ------- 2 5.0 0.0 -1 25
r 0.73392 1 2 ack 40 ------- 4 1.0 3.0 1 26
+ 0.73392 2 3 ack 40 ------- 4 1.0 3.0 1 26
d 0.73392 2 3 ack 40 ------- 4 1.0 3.0 1 26
r 0.73904 1 2 ping 64 ------- 1 0.0 5.0 -1 21
+ 0.73904 2 3 ping 64 ------- 1 0.0 5.0 -1 21
d 0.73904 2 3 ping 64 ------- 1 0.0 5.0 -1 21
r 0.74096 3 2 ping 64 ------- 2 5.0 0.0 -1 14
+ 0.74096 2 1 ping 64 ------- 2 5.0 0.0 -1 14
- 0.74096 2 1 ping 64 ------- 2 5.0 0.0 -1 14
r 0.74416 1 2 ping 64 ------- 1 0.0 5.0 -1 22
+ 0.74416 2 3 ping 64 ------- 1 0.0 5.0 -1 22
d 0.74416 2 3 ping 64 ------- 1 0.0 5.0 -1 22
r 0.74608 3 2 ping 64 ------- 2 5.0 0.0 -1 15
+ 0.74608 2 1 ping 64 ------- 2 5.0 0.0 -1 15
- 0.74608 2 1 ping 64 ------- 2 5.0 0.0 -1 15
r 0.75512 0 1 ping 64 ------- 1 0.0 5.0 -1 27
+ 0.75512 1 2 ping 64 ------- 1 0.0 5.0 -1 27
- 0.75512 1 2 ping 64 ------- 1 0.0 5.0 -1 27
r 0.7624 2 1 tcp 1040 ------- 4 3.0 1.0 2 10
+ 0.7624 1 2 ack 40 ------- 4 1.0 3.0 2 28
- 0.7624 1 2 ack 40 ------- 4 1.0 3.0 2 28
r 0.7656 2 3 tcp 1040 ------- 3 2.0 4.0 1 23
+ 0.7656 3 4 tcp 1040 ------- 3 2.0 4.0 1 23
- 0.7656 3 4 tcp 1040 ------- 3 2.0 4.0 1 23
r 0.76752 2 1 ping 64 ------- 2 5.0 0.0 -1 11
+ 0.76752 1 0 ping 64 ------- 2 5.0 0.0 -1 11
- 0.76752 1 0 ping 64 ------- 2 5.0 0.0 -1 11
r 0.7756 4 5 ping 64 ------- 1 0.0 5.0 -1 12
+ 0.7756 5 4 ping 64 ------- 2 5.0 0.0 -1 29
- 0.7756 5 4 ping 64 ------- 2 5.0 0.0 -1 29
r 0.78584 4 3 ping 64 ------- 2 5.0 0.0 -1 25
+ 0.78584 3 2 ping 64 ------- 2 5.0 0.0 -1 25
- 0.78584 3 2 ping 64 ------- 2 5.0 0.0 -1 25
r 0.79608 2 1 ping 64 ------- 2 5.0 0.0 -1 14
+ 0.79608 1 0 ping 64 ------- 2 5.0 0.0 -1 14
- 0.79608 1 0 ping 64 ------- 2 5.0 0.0 -1 14
- 0.7988 2 3 ping 64 ------- 1 0.0 5.0 -1 18
+ 0.8 0 1 ping 64 ------- 1 0.0 5.0 -1 30
- 0.8 0 1 ping 64 ------- 1 0.0 5.0 -1 30
r 0.8012 2 1 ping 64 ------- 2 5.0 0.0 -1 15
+ 0.8012 1 0 ping 64 ------- 2 5.0 0.0 -1 15
- 0.8012 1 0 ping 64 ------- 2 5.0 0.0 -1 15
r 0.81024 1 2 ping 64 ------- 1 0.0 5.0 -1 27
+ 0.81024 2 3 ping 64 ------- 1 0.0 5.0 -1 27
- 0.81024 2 3 ping 64 ------- 1 0.0 5.0 -1 27
r 0.8156 1 2 ack 40 ------- 4 1.0 3.0 2 28
+ 0.8156 2 3 ack 40 ------- 4 1.0 3.0 2 28
- 0.8156 2 3 ack 40 ------- 4 1.0 3.0 2 28
r 0.82264 1 0 ping 64 ------- 2 5.0 0.0 -1 11
r 0.83072 5 4 ping 64 ------- 2 5.0 0.0 -1 29
+ 0.83072 4 3 ping 64 ------- 2 5.0 0.0 -1 29
- 0.83072 4 3 ping 64 ------- 2 5.0 0.0 -1 29
r 0.84096 3 2 ping 64 ------- 2 5.0 0.0 -1 25
+ 0.84096 2 1 ping 64 ------- 2 5.0 0.0 -1 25
- 0.84096 2 1 ping 64 ------- 2 5.0 0.0 -1 25
r 0.8488 2 3 tcp 1040 ------- 3 2.0 4.0 2 24
+ 0.8488 3 4 tcp 1040 ------- 3 2.0 4.0 2 24
- 0.8488 3 4 tcp 1040 ------- 3 2.0 4.0 2 24
r 0.8512 1 0 ping 64 ------- 2 5.0 0.0 -1 14
r 0.85392 2 3 ping 64 ------- 1 0.0 5.0 -1 18
+ 0.85392 3 4 ping 64 ------- 1 0.0 5.0 -1 18
r 0.85512 0 1 ping 64 ------- 1 0.0 5.0 -1 30
+ 0.85512 1 2 ping 64 ------- 1 0.0 5.0 -1 30
- 0.85512 1 2 ping 64 ------- 1 0.0 5.0 -1 30
r 0.85632 1 0 ping 64 ------- 2 5.0 0.0 -1 15
r 0.86536 2 3 ping 64 ------- 1 0.0 5.0 -1 27
+ 0.86536 3 4 ping 64 ------- 1 0.0 5.0 -1 27
d 0.86536 3 4 ping 64 ------- 1 0.0 5.0 -1 27
r 0.8688 2 3 ack 40 ------- 4 1.0 3.0 2 28
+ 0.8688 3 2 tcp 1040 ------- 4 3.0 1.0 3 31
- 0.8688 3 2 tcp 1040 ------- 4 3.0 1.0 3 31
+ 0.8688 3 2 tcp 1040 ------- 4 3.0 1.0 4 32
+ 0.8688 3 2 tcp 1040 ------- 4 3.0 1.0 5 33
d 0.8688 3 2 tcp 1040 ------- 4 3.0 1.0 5 33
r 0.88584 4 3 ping 64 ------- 2 5.0 0.0 -1 29
+ 0.88584 3 2 ping 64 ------- 2 5.0 0.0 -1 29
d 0.88584 3 2 ping 64 ------- 2 5.0 0.0 -1 29
r 0.89608 2 1 ping 64 ------- 2 5.0 0.0 -1 25
+ 0.89608 1 0 ping 64 ------- 2 5.0 0.0 -1 25
- 0.89608 1 0 ping 64 ------- 2 5.0 0.0 -1 25
r 0.8988 3 4 tcp 1040 ------- 3 2.0 4.0 1 23
+ 0.8988 4 3 ack 40 ------- 3 4.0 2.0 1 34
- 0.8988 4 3 ack 40 ------- 3 4.0 2.0 1 34
r 0.91024 1 2 ping 64 ------- 1 0.0 5.0 -1 30
+ 0.91024 2 3 ping 64 ------- 1 0.0 5.0 -1 30
- 0.91024 2 3 ping 64 ------- 1 0.0 5.0 -1 30
- 0.932 3 4 ping 64 ------- 1 0.0 5.0 -1 18
r 0.9512 1 0 ping 64 ------- 2 5.0 0.0 -1 25
- 0.952 3 2 tcp 1040 ------- 4 3.0 1.0 4 32
r 0.952 4 3 ack 40 ------- 3 4.0 2.0 1 34
+ 0.952 3 2 ack 40 ------- 3 4.0 2.0 1 34
r 0.96536 2 3 ping 64 ------- 1 0.0 5.0 -1 30
+ 0.96536 3 4 ping 64 ------- 1 0.0 5.0 -1 30
- 0.96536 3 4 ping 64 ------- 1 0.0 5.0 -1 30
r 0.982 3 4 tcp 1040 ------- 3 2.0 4.0 2 24
+ 0.982 4 3 ack 40 ------- 3 4.0 2.0 2 35
- 0.982 4 3 ack 40 ------- 3 4.0 2.0 2 35
r 0.98712 3 4 ping 64 ------- 1 0.0 5.0 -1 18
+ 0.98712 4 5 ping 64 ------- 1 0.0 5.0 -1 18
- 0.98712 4 5 ping 64 ------- 1 0.0 5.0 -1 18
r 1.002 3 2 tcp 1040 ------- 4 3.0 1.0 3 31
+ 1.002 2 1 tcp 1040 ------- 4 3.0 1.0 3 31
- 1.002 2 1 tcp 1040 ------- 4 3.0 1.0 3 31
r 1.02048 3 4 ping 64 ------- 1 0.0 5.0 -1 30
+ 1.02048 4 5 ping 64 ------- 1 0.0 5.0 -1 30
- 1.02048 4 5 ping 64 ------- 1 0.0 5.0 -1 30
- 1.0352 3 2 ack 40 ------- 3 4.0 2.0 1 34
r 1.0352 4 3 ack 40 ------- 3 4.0 2.0 2 35
+ 1.0352 3 2 ack 40 ------- 3 4.0 2.0 2 35
- 1.0384 3 2 ack 40 ------- 3 4.0 2.0 2 35
r 1.04224 4 5 ping 64 ------- 1 0.0 5.0 -1 18
+ 1.04224 5 4 ping 64 ------- 2 5.0 0.0 -1 36
- 1.04224 5 4 ping 64 ------- 2 5.0 0.0 -1 36
r 1.0756 4 5 ping 64 ------- 1 0.0 5.0 -1 30
+ 1.0756 5 4 ping 64 ------- 2 5.0 0.0 -1 37
- 1.0756 5 4 ping 64 ------- 2 5.0 0.0 -1 37
r 1.0852 3 2 tcp 1040 ------- 4 3.0 1.0 4 32
+ 1.0852 2 1 tcp 1040 ------- 4 3.0 1.0 4 32
- 1.0852 2 1 tcp 1040 ------- 4 3.0 1.0 4 32
r 1.0884 3 2 ack 40 ------- 3 4.0 2.0 1 34
+ 1.0884 2 3 tcp 1040 ------- 3 2.0 4.0 3 38
- 1.0884 2 3 tcp 1040 ------- 3 2.0 4.0 3 38
+ 1.0884 2 3 tcp 1040 ------- 3 2.0 4.0 4 39
r 1.0916 3 2 ack 40 ------- 3 4.0 2.0 2 35
+ 1.0916 2 3 tcp 1040 ------- 3 2.0 4.0 5 40
d 1.0916 2 3 tcp 1040 ------- 3 2.0 4.0 5 40
+ 1.0916 2 3 tcp 1040 ------- 3 2.0 4.0 6 41
d 1.0916 2 3 tcp 1040 ------- 3 2.0 4.0 6 41
r 1.09736 5 4 ping 64 ------- 2 5.0 0.0 -1 36
+ 1.09736 4 3 ping 64 ------- 2 5.0 0.0 -1 36
- 1.09736 4 3 ping 64 ------- 2 5.0 0.0 -1 36
+ 1.1 0 1 ping 64 ------- 1 0.0 5.0 -1 42
- 1.1 0 1 ping 64 ------- 1 0.0 5.0 -1 42
r 1.13072 5 4 ping 64 ------- 2 5.0 0.0 -1 37
+ 1.13072 4 3 ping 64 ------- 2 5.0 0.0 -1 37
- 1.13072 4 3 ping 64 ------- 2 5.0 0.0 -1 37
r 1.1352 2 1 tcp 1040 ------- 4 3.0 1.0 3 31
+ 1.1352 1 2 ack 40 ------- 4 1.0 3.0 3 43
- 1.1352 1 2 ack 40 ------- 4 1.0 3.0 3 43
r 1.15248 4 3 ping 64 ------- 2 5.0 0.0 -1 36
+ 1.15248 3 2 ping 64 ------- 2 5.0 0.0 -1 36
- 1.15248 3 2 ping 64 ------- 2 5.0 0.0 -1 36
r 1.15512 0 1 ping 64 ------- 1 0.0 5.0 -1 42
+ 1.15512 1 2 ping 64 ------- 1 0.0 5.0 -1 42
- 1.15512 1 2 ping 64 ------- 1 0.0 5.0 -1 42
- 1.1716 2 3 tcp 1040 ------- 3 2.0 4.0 4 39
r 1.18584 4 3 ping 64 ------- 2 5.0 0.0 -1 37
+ 1.18584 3 2 ping 64 ------- 2 5.0 0.0 -1 37
- 1.18584 3 2 ping 64 ------- 2 5.0 0.0 -1 37
r 1.1884 1 2 ack 40 ------- 4 1.0 3.0 3 43
+ 1.1884 2 3 ack 40 ------- 4 1.0 3.0 3 43
+ 1.2 0 1 ping 64 ------- 1 0.0 5.0 -1 44
- 1.2 0 1 ping 64 ------- 1 0.0 5.0 -1 44
r 1.2076 3 2 ping 64 ------- 2 5.0 0.0 -1 36
+ 1.2076 2 1 ping 64 ------- 2 5.0 0.0 -1 36
- 1.2076 2 1 ping 64 ------- 2 5.0 0.0 -1 36
r 1.21024 1 2 ping 64 ------- 1 0.0 5.0 -1 42
+ 1.21024 2 3 ping 64 ------- 1 0.0 5.0 -1 42
d 1.21024 2 3 ping 64 ------- 1 0.0 5.0 -1 42
r 1.2184 2 1 tcp 1040 ------- 4 3.0 1.0 4 32
+ 1.2184 1 2 ack 40 ------- 4 1.0 3.0 4 45
- 1.2184 1 2 ack 40 ------- 4 1.0 3.0 4 45
r 1.2216 2 3 tcp 1040 ------- 3 2.0 4.0 3 38
+ 1.2216 3 4 tcp 1040 ------- 3 2.0 4.0 3 38
- 1.2216 3 4 tcp 1040 ------- 3 2.0 4.0 3 38
r 1.24096 3 2 ping 64 ------- 2 5.0 0.0 -1 37
+ 1.24096 2 1 ping 64 ------- 2 5.0 0.0 -1 37
- 1.24096 2 1 ping 64 ------- 2 5.0 0.0 -1 37
- 1.2548 2 3 ack 40 ------- 4 1.0 3.0 3 43
r 1.25512 0 1 ping 64 ------- 1 0.0 5.0 -1 44
+ 1.25512 1 2 ping 64 ------- 1 0.0 5.0 -1 44
- 1.25512 1 2 ping 64 ------- 1 0.0 5.0 -1 44
r 1.26272 2 1 ping 64 ------- 2 5.0 0.0 -1 36
+ 1.26272 1 0 ping 64 ------- 2 5.0 0.0 -1 36
- 1.26272 1 0 ping 64 ------- 2 5.0 0.0 -1 36
r 1.2716 1 2 ack 40 ------- 4 1.0 3.0 4 45
+ 1.2716 2 3 ack 40 ------- 4 1.0 3.0 4 45
- 1.2716 2 3 ack 40 ------- 4 1.0 3.0 4 45
r 1.29608 2 1 ping 64 ------- 2 5.0 0.0 -1 37
+ 1.29608 1 0 ping 64 ------- 2 5.0 0.0 -1 37
- 1.29608 1 0 ping 64 ------- 2 5.0 0.0 -1 37
+ 1.3 0 1 ping 64 ------- 1 0.0 5.0 -1 46
- 1.3 0 1 ping 64 ------- 1 0.0 5.0 -1 46
r 1.3048 2 3 tcp 1040 ------- 3 2.0 4.0 4 39
+ 1.3048 3 4 tcp 1040 ------- 3 2.0 4.0 4 39
- 1.3048 3 4 tcp 1040 ------- 3 2.0 4.0 4 39
r 1.308 2 3 ack 40 ------- 4 1.0 3.0 3 43
+ 1.308 3 2 tcp 1040 ------- 4 3.0 1.0 6 47
- 1.308 3 2 tcp 1040 ------- 4 3.0 1.0 6 47
+ 1.308 3 2 tcp 1040 ------- 4 3.0 1.0 7 48
r 1.31024 1 2 ping 64 ------- 1 0.0 5.0 -1 44
+ 1.31024 2 3 ping 64 ------- 1 0.0 5.0 -1 44
- 1.31024 2 3 ping 64 ------- 1 0.0 5.0 -1 44
r 1.31784 1 0 ping 64 ------- 2 5.0 0.0 -1 36
r 1.3248 2 3 ack 40 ------- 4 1.0 3.0 4 45
+ 1.3248 3 2 tcp 1040 ------- 4 3.0 1.0 8 49
d 1.3248 3 2 tcp 1040 ------- 4 3.0 1.0 8 49
+ 1.3248 3 2 tcp 1040 ------- 4 3.0 1.0 9 50
d 1.3248 3 2 tcp 1040 ------- 4 3.0 1.0 9 50
r 1.3512 1 0 ping 64 ------- 2 5.0 0.0 -1 37
r 1.3548 3 4 tcp 1040 ------- 3 2.0 4.0 3 38
+ 1.3548 4 3 ack 40 ------- 3 4.0 2.0 3 51
- 1.3548 4 3 ack 40 ------- 3 4.0 2.0 3 51
r 1.35512 0 1 ping 64 ------- 1 0.0 5.0 -1 46
+ 1.35512 1 2 ping 64 ------- 1 0.0 5.0 -1 46
- 1.35512 1 2 ping 64 ------- 1 0.0 5.0 -1 46
r 1.36536 2 3 ping 64 ------- 1 0.0 5.0 -1 44
+ 1.36536 3 4 ping 64 ------- 1 0.0 5.0 -1 44
- 1.388 3 4 ping 64 ------- 1 0.0 5.0 -1 44
- 1.3912 3 2 tcp 1040 ------- 4 3.0 1.0 7 48
r 1.408 4 3 ack 40 ------- 3 4.0 2.0 3 51
+ 1.408 3 2 ack 40 ------- 3 4.0 2.0 3 51
r 1.41024 1 2 ping 64 ------- 1 0.0 5.0 -1 46
+ 1.41024 2 3 ping 64 ------- 1 0.0 5.0 -1 46
- 1.41024 2 3 ping 64 ------- 1 0.0 5.0 -1 46
r 1.438 3 4 tcp 1040 ------- 3 2.0 4.0 4 39
+ 1.438 4 3 ack 40 ------- 3 4.0 2.0 4 52
- 1.438 4 3 ack 40 ------- 3 4.0 2.0 4 52
r 1.4412 3 2 tcp 1040 ------- 4 3.0 1.0 6 47
+ 1.4412 2 1 tcp 1040 ------- 4 3.0 1.0 6 47
- 1.4412 2 1 tcp 1040 ------- 4 3.0 1.0 6 47
r 1.44312 3 4 ping 64 ------- 1 0.0 5.0 -1 44
+ 1.44312 4 5 ping 64 ------- 1 0.0 5.0 -1 44
- 1.44312 4 5 ping 64 ------- 1 0.0 5.0 -1 44
r 1.46536 2 3 ping 64 ------- 1 0.0 5.0 -1 46
+ 1.46536 3 4 ping 64 ------- 1 0.0 5.0 -1 46
- 1.46536 3 4 ping 64 ------- 1 0.0 5.0 -1 46
- 1.4744 3 2 ack 40 ------- 3 4.0 2.0 3 51
r 1.4912 4 3 ack 40 ------- 3 4.0 2.0 4 52
+ 1.4912 3 2 ack 40 ------- 3 4.0 2.0 4 52
- 1.4912 3 2 ack 40 ------- 3 4.0 2.0 4 52
r 1.49824 4 5 ping 64 ------- 1 0.0 5.0 -1 44
+ 1.49824 5 4 ping 64 ------- 2 5.0 0.0 -1 53
- 1.49824 5 4 ping 64 ------- 2 5.0 0.0 -1 53
r 1.52048 3 4 ping 64 ------- 1 0.0 5.0 -1 46
+ 1.52048 4 5 ping 64 ------- 1 0.0 5.0 -1 46
- 1.52048 4 5 ping 64 ------- 1 0.0 5.0 -1 46
r 1.5244 3 2 tcp 1040 ------- 4 3.0 1.0 7 48
+ 1.5244 2 1 tcp 1040 ------- 4 3.0 1.0 7 48
- 1.5244 2 1 tcp 1040 ------- 4 3.0 1.0 7 48
r 1.5276 3 2 ack 40 ------- 3 4.0 2.0 3 51
+ 1.5276 2 3 tcp 1040 ------- 3 2.0 4.0 7 54
- 1.5276 2 3 tcp 1040 ------- 3 2.0 4.0 7 54
+ 1.5276 2 3 tcp 1040 ------- 3 2.0 4.0 8 55
r 1.5444 3 2 ack 40 ------- 3 4.0 2.0 4 52
+ 1.5444 2 3 tcp 1040 ------- 3 2.0 4.0 9 56
d 1.5444 2 3 tcp 1040 ------- 3 2.0 4.0 9 56
+ 1.5444 2 3 tcp 1040 ------- 3 2.0 4.0 10 57
d 1.5444 2 3 tcp 1040 ------- 3 2.0 4.0 10 57
r 1.55336 5 4 ping 64 ------- 2 5.0 0.0 -1 53
+ 1.55336 4 3 ping 64 ------- 2 5.0 0.0 -1 53
- 1.55336 4 3 ping 64 ------- 2 5.0 0.0 -1 53
r 1.5744 2 1 tcp 1040 ------- 4 3.0 1.0 6 47
+ 1.5744 1 2 ack 40 ------- 4 1.0 3.0 4 58
- 1.5744 1 2 ack 40 ------- 4 1.0 3.0 4 58
r 1.5756 4 5 ping 64 ------- 1 0.0 5.0 -1 46
+ 1.5756 5 4 ping 64 ------- 2 5.0 0.0 -1 59
- 1.5756 5 4 ping 64 ------- 2 5.0 0.0 -1 59
r 1.60848 4 3 ping 64 ------- 2 5.0 0.0 -1 53
+ 1.60848 3 2 ping 64 ------- 2 5.0 0.0 -1 53
- 1.60848 3 2 ping 64 ------- 2 5.0 0.0 -1 53
- 1.6108 2 3 tcp 1040 ------- 3 2.0 4.0 8 55
r 1.6276 1 2 ack 40 ------- 4 1.0 3.0 4 58
+ 1.6276 2 3 ack 40 ------- 4 1.0 3.0 4 58
r 1.63072 5 4 ping 64 ------- 2 5.0 0.0 -1 59
+ 1.63072 4 3 ping 64 ------- 2 5.0 0.0 -1 59
- 1.63072 4 3 ping 64 ------- 2 5.0 0.0 -1 59
r 1.6576 2 1 tcp 1040 ------- 4 3.0 1.0 7 48
+ 1.6576 1 2 ack 40 ------- 4 1.0 3.0 4 60
- 1.6576 1 2 ack 40 ------- 4 1.0 3.0 4 60
r 1.6608 2 3 tcp 1040 ------- 3 2.0 4.0 7 54
+ 1.6608 3 4 tcp 1040 ------- 3 2.0 4.0 7 54
- 1.6608 3 4 tcp 1040 ------- 3 2.0 4.0 7 54
r 1.6636 3 2 ping 64 ------- 2 5.0 0.0 -1 53
+ 1.6636 2 1 ping 64 ------- 2 5.0 0.0 -1 53
- 1.6636 2 1 ping 64 ------- 2 5.0 0.0 -1 53
r 1.68584 4 3 ping 64 ------- 2 5.0 0.0 -1 59
+ 1.68584 3 2 ping 64 ------- 2 5.0 0.0 -1 59
- 1.68584 3 2 ping 64 ------- 2 5.0 0.0 -1 59
- 1.694 2 3 ack 40 ------- 4 1.0 3.0 4 58
r 1.7108 1 2 ack 40 ------- 4 1.0 3.0 4 60
+ 1.7108 2 3 ack 40 ------- 4 1.0 3.0 4 60
- 1.7108 2 3 ack 40 ------- 4 1.0 3.0 4 60
r 1.71872 2 1 ping 64 ------- 2 5.0 0.0 -1 53
+ 1.71872 1 0 ping 64 ------- 2 5.0 0.0 -1 53
- 1.71872 1 0 ping 64 ------- 2 5.0 0.0 -1 53
r 1.74096 3 2 ping 64 ------- 2 5.0 0.0 -1 59
+ 1.74096 2 1 ping 64 ------- 2 5.0 0.0 -1 59
- 1.74096 2 1 ping 64 ------- 2 5.0 0.0 -1 59
r 1.744 2 3 tcp 1040 ------- 3 2.0 4.0 8 55
+ 1.744 3 4 tcp 1040 ------- 3 2.0 4.0 8 55
- 1.744 3 4 tcp 1040 ------- 3 2.0 4.0 8 55
r 1.7472 2 3 ack 40 ------- 4 1.0 3.0 4 58
+ 1.7472 3 2 tcp 1040 ------- 4 3.0 1.0 10 61
- 1.7472 3 2 tcp 1040 ------- 4 3.0 1.0 10 61
r 1.764 2 3 ack 40 ------- 4 1.0 3.0 4 60
+ 1.764 3 2 tcp 1040 ------- 4 3.0 1.0 11 62
r 1.77384 1 0 ping 64 ------- 2 5.0 0.0 -1 53
r 1.794 3 4 tcp 1040 ------- 3 2.0 4.0 7 54
+ 1.794 4 3 ack 40 ------- 3 4.0 2.0 4 63
- 1.794 4 3 ack 40 ------- 3 4.0 2.0 4 63
r 1.79608 2 1 ping 64 ------- 2 5.0 0.0 -1 59
+ 1.79608 1 0 ping 64 ------- 2 5.0 0.0 -1 59
- 1.79608 1 0 ping 64 ------- 2 5.0 0.0 -1 59
- 1.8304 3 2 tcp 1040 ------- 4 3.0 1.0 11 62
r 1.8472 4 3 ack 40 ------- 3 4.0 2.0 4 63
+ 1.8472 3 2 ack 40 ------- 3 4.0 2.0 4 63
r 1.8512 1 0 ping 64 ------- 2 5.0 0.0 -1 59
r 1.8772 3 4 tcp 1040 ------- 3 2.0 4.0 8 55
+ 1.8772 4 3 ack 40 ------- 3 4.0 2.0 4 64
- 1.8772 4 3 ack 40 ------- 3 4.0 2.0 4 64
r 1.8804 3 2 tcp 1040 ------- 4 3.0 1.0 10 61
+ 1.8804 2 1 tcp 1040 ------- 4 3.0 1.0 10 61
- 1.8804 2 1 tcp 1040 ------- 4 3.0 1.0 10 61
- 1.9136 3 2 ack 40 ------- 3 4.0 2.0 4 63
r 1.9304 4 3 ack 40 ------- 3 4.0 2.0 4 64
+ 1.9304 3 2 ack 40 ------- 3 4.0 2.0 4 64
- 1.9304 3 2 ack 40 ------- 3 4.0 2.0 4 64
r 1.9636 3 2 tcp 1040 ------- 4 3.0 1.0 11 62
+ 1.9636 2 1 tcp 1040 ------- 4 3.0 1.0 11 62
- 1.9636 2 1 tcp 1040 ------- 4 3.0 1.0 11 62
r 1.9668 3 2 ack 40 ------- 3 4.0 2.0 4 63
+ 1.9668 2 3 tcp 1040 ------- 3 2.0 4.0 11 65
- 1.9668 2 3 tcp 1040 ------- 3 2.0 4.0 11 65
r 1.9836 3 2 ack 40 ------- 3 4.0 2.0 4 64
+ 1.9836 2 3 tcp 1040 ------- 3 2.0 4.0 12 66
+ 2 0 1 ping 64 ------- 1 0.0 5.0 -1 67
- 2 0 1 ping 64 ------- 1 0.0 5.0 -1 67
r 2.0136 2 1 tcp 1040 ------- 4 3.0 1.0 10 61
+ 2.0136 1 2 ack 40 ------- 4 1.0 3.0 4 68
- 2.0136 1 2 ack 40 ------- 4 1.0 3.0 4 68
- 2.05 2 3 tcp 1040 ------- 3 2.0 4.0 12 66
r 2.05512 0 1 ping 64 ------- 1 0.0 5.0 -1 67
+ 2.05512 1 2 ping 64 ------- 1 0.0 5.0 -1 67
- 2.05512 1 2 ping 64 ------- 1 0.0 5.0 -1 67
r 2.0668 1 2 ack 40 ------- 4 1.0 3.0 4 68
+ 2.0668 2 3 ack 40 ------- 4 1.0 3.0 4 68
r 2.0968 2 1 tcp 1040 ------- 4 3.0 1.0 11 62
+ 2.0968 1 2 ack 40 ------- 4 1.0 3.0 4 69
- 2.0968 1 2 ack 40 ------- 4 1.0 3.0 4 69
r 2.1 2 3 tcp 1040 ------- 3 2.0 4.0 11 65
+ 2.1 3 4 tcp 1040 ------- 3 2.0 4.0 11 65
- 2.1 3 4 tcp 1040 ------- 3 2.0 4.0 11 65
+ 2.1 0 1 ping 64 ------- 1 0.0 5.0 -1 70
- 2.1 0 1 ping 64 ------- 1 0.0 5.0 -1 70
r 2.11024 1 2 ping 64 ------- 1 0.0 5.0 -1 67
+ 2.11024 2 3 ping 64 ------- 1 0.0 5.0 -1 67
d 2.11024 2 3 ping 64 ------- 1 0.0 5.0 -1 67
- 2.1332 2 3 ack 40 ------- 4 1.0 3.0 4 68
r 2.15 1 2 ack 40 ------- 4 1.0 3.0 4 69
+ 2.15 2 3 ack 40 ------- 4 1.0 3.0 4 69
- 2.15 2 3 ack 40 ------- 4 1.0 3.0 4 69
r 2.15512 0 1 ping 64 ------- 1 0.0 5.0 -1 70
+ 2.15512 1 2 ping 64 ------- 1 0.0 5.0 -1 70
- 2.15512 1 2 ping 64 ------- 1 0.0 5.0 -1 70
r 2.1832 2 3 tcp 1040 ------- 3 2.0 4.0 12 66
+ 2.1832 3 4 tcp 1040 ------- 3 2.0 4.0 12 66
- 2.1832 3 4 tcp 1040 ------- 3 2.0 4.0 12 66
r 2.1864 2 3 ack 40 ------- 4 1.0 3.0 4 68
+ 2.1864 3 2 tcp 1040 ------- 4 3.0 1.0 5 71
- 2.1864 3 2 tcp 1040 ------- 4 3.0 1.0 5 71
+ 2.2 0 1 ping 64 ------- 1 0.0 5.0 -1 72
- 2.2 0 1 ping 64 ------- 1 0.0 5.0 -1 72
r 2.2032 2 3 ack 40 ------- 4 1.0 3.0 4 69
r 2.21024 1 2 ping 64 ------- 1 0.0 5.0 -1 70
+ 2.21024 2 3 ping 64 ------- 1 0.0 5.0 -1 70
- 2.21024 2 3 ping 64 ------- 1 0.0 5.0 -1 70
r 2.2332 3 4 tcp 1040 ------- 3 2.0 4.0 11 65
+ 2.2332 4 3 ack 40 ------- 3 4.0 2.0 4 73
- 2.2332 4 3 ack 40 ------- 3 4.0 2.0 4 73
r 2.25512 0 1 ping 64 ------- 1 0.0 5.0 -1 72
+ 2.25512 1 2 ping 64 ------- 1 0.0 5.0 -1 72
- 2.25512 1 2 ping 64 ------- 1 0.0 5.0 -1 72
r 2.26536 2 3 ping 64 ------- 1 0.0 5.0 -1 70
+ 2.26536 3 4 ping 64 ------- 1 0.0 5.0 -1 70
- 2.2664 3 4 ping 64 ------- 1 0.0 5.0 -1 70
r 2.2864 4 3 ack 40 ------- 3 4.0 2.0 4 73
+ 2.2864 3 2 ack 40 ------- 3 4.0 2.0 4 73
- 2.2864 3 2 ack 40 ------- 3 4.0 2.0 4 73
+ 2.3 0 1 ping 64 ------- 1 0.0 5.0 -1 74
- 2.3 0 1 ping 64 ------- 1 0.0 5.0 -1 74
r 2.31024 1 2 ping 64 ------- 1 0.0 5.0 -1 72
+ 2.31024 2 3 ping 64 ------- 1 0.0 5.0 -1 72
- 2.31024 2 3 ping 64 ------- 1 0.0 5.0 -1 72
r 2.3164 3 4 tcp 1040 ------- 3 2.0 4.0 12 66
+ 2.3164 4 3 ack 40 ------- 3 4.0 2.0 4 75
- 2.3164 4 3 ack 40 ------- 3 4.0 2.0 4 75
r 2.3196 3 2 tcp 1040 ------- 4 3.0 1.0 5 71
+ 2.3196 2 1 tcp 1040 ------- 4 3.0 1.0 5 71
- 2.3196 2 1 tcp 1040 ------- 4 3.0 1.0 5 71
r 2.32152 3 4 ping 64 ------- 1 0.0 5.0 -1 70
+ 2.32152 4 5 ping 64 ------- 1 0.0 5.0 -1 70
- 2.32152 4 5 ping 64 ------- 1 0.0 5.0 -1 70
r 2.3396 3 2 ack 40 ------- 3 4.0 2.0 4 73
+ 2.3396 2 3 tcp 1040 ------- 3 2.0 4.0 5 76
- 2.3396 2 3 tcp 1040 ------- 3 2.0 4.0 5 76
r 2.35512 0 1 ping 64 ------- 1 0.0 5.0 -1 74
+ 2.35512 1 2 ping 64 ------- 1 0.0 5.0 -1 74
- 2.35512 1 2 ping 64 ------- 1 0.0 5.0 -1 74
r 2.36536 2 3 ping 64 ------- 1 0.0 5.0 -1 72
+ 2.36536 3 4 ping 64 ------- 1 0.0 5.0 -1 72
- 2.36536 3 4 ping 64 ------- 1 0.0 5.0 -1 72
r 2.3696 4 3 ack 40 ------- 3 4.0 2.0 4 75
+ 2.3696 3 2 ack 40 ------- 3 4.0 2.0 4 75
- 2.3696 3 2 ack 40 ------- 3 4.0 2.0 4 75
r 2.37664 4 5 ping 64 ------- 1 0.0 5.0 -1 70
+ 2.37664 5 4 ping 64 ------- 2 5.0 0.0 -1 77
- 2.37664 5 4 ping 64 ------- 2 5.0 0.0 -1 77
+ 2.4 0 1 ping 64 ------- 1 0.0 5.0 -1 78
- 2.4 0 1 ping 64 ------- 1 0.0 5.0 -1 78
r 2.41024 1 2 ping 64 ------- 1 0.0 5.0 -1 74
+ 2.41024 2 3 ping 64 ------- 1 0.0 5.0 -1 74
r 2.42048 3 4 ping 64 ------- 1 0.0 5.0 -1 72
+ 2.42048 4 5 ping 64 ------- 1 0.0 5.0 -1 72
- 2.42048 4 5 ping 64 ------- 1 0.0 5.0 -1 72
- 2.4228 2 3 ping 64 ------- 1 0.0 5.0 -1 74
r 2.4228 3 2 ack 40 ------- 3 4.0 2.0 4 75
r 2.43176 5 4 ping 64 ------- 2 5.0 0.0 -1 77
+ 2.43176 4 3 ping 64 ------- 2 5.0 0.0 -1 77
- 2.43176 4 3 ping 64 ------- 2 5.0 0.0 -1 77
r 2.4528 2 1 tcp 1040 ------- 4 3.0 1.0 5 71
+ 2.4528 1 2 ack 40 ------- 4 1.0 3.0 7 79
- 2.4528 1 2 ack 40 ------- 4 1.0 3.0 7 79
r 2.45512 0 1 ping 64 ------- 1 0.0 5.0 -1 78
+ 2.45512 1 2 ping 64 ------- 1 0.0 5.0 -1 78
- 2.456 1 2 ping 64 ------- 1 0.0 5.0 -1 78
r 2.4728 2 3 tcp 1040 ------- 3 2.0 4.0 5 76
+ 2.4728 3 4 tcp 1040 ------- 3 2.0 4.0 5 76
- 2.4728 3 4 tcp 1040 ------- 3 2.0 4.0 5 76
r 2.4756 4 5 ping 64 ------- 1 0.0 5.0 -1 72
+ 2.4756 5 4 ping 64 ------- 2 5.0 0.0 -1 80
- 2.4756 5 4 ping 64 ------- 2 5.0 0.0 -1 80
r 2.47792 2 3 ping 64 ------- 1 0.0 5.0 -1 74
+ 2.47792 3 4 ping 64 ------- 1 0.0 5.0 -1 74
r 2.48688 4 3 ping 64 ------- 2 5.0 0.0 -1 77
+ 2.48688 3 2 ping 64 ------- 2 5.0 0.0 -1 77
- 2.48688 3 2 ping 64 ------- 2 5.0 0.0 -1 77
+ 2.5 0 1 ping 64 ------- 1 0.0 5.0 -1 81
- 2.5 0 1 ping 64 ------- 1 0.0 5.0 -1 81
r 2.506 1 2 ack 40 ------- 4 1.0 3.0 7 79
+ 2.506 2 3 ack 40 ------- 4 1.0 3.0 7 79
- 2.506 2 3 ack 40 ------- 4 1.0 3.0 7 79
r 2.51112 1 2 ping 64 ------- 1 0.0 5.0 -1 78
+ 2.51112 2 3 ping 64 ------- 1 0.0 5.0 -1 78
- 2.51112 2 3 ping 64 ------- 1 0.0 5.0 -1 78
r 2.53072 5 4 ping 64 ------- 2 5.0 0.0 -1 80
+ 2.53072 4 3 ping 64 ------- 2 5.0 0.0 -1 80
- 2.53072 4 3 ping 64 ------- 2 5.0 0.0 -1 80
r 2.542 3 2 ping 64 ------- 2 5.0 0.0 -1 77