n -t 0 -s 0 -S DLABEL -l "tcp0" -L ""
n -t 0 -s 1 -S DLABEL -l "sink1/tcp1" -L ""
n -t 0 -s 2 -S DLABEL -l "sink2" -L ""
V -t * -v 1.0a5 -a 0
W -t * -x 1000 -y 1000
A -t * -n 1 -p 0 -o 0xffffffff -c 31 -a 1
A -t * -h 1 -m 2147483647 -s 0
+ -t 0.001560381 -s 0 -d -1 -p message -e 32 -c 2 -a 0 -i 0 -k RTR 
- -t 0.001560381 -s 0 -d -1 -p message -e 32 -c 2 -a 0 -i 0 -k RTR
h -t 0.001560381 -s 0 -d -1 -p message -e 32 -c 2 -a 0 -i 0 -k RTR
+ -t 0.001635381 -s 0 -d -1 -p message -e 90 -c 2 -a 0 -i 0 -k MAC 
- -t 0.001635381 -s 0 -d -1 -p message -e 90 -c 2 -a 0 -i 0 -k MAC
h -t 0.001635381 -s 0 -d -1 -p message -e 90 -c 2 -a 0 -i 0 -k MAC
r -t 0.002355617 -s 1 -d -1 -p message -e 32 -c 2 -a 0 -i 0 -k MAC
r -t 0.002380617 -s 1 -d -1 -p message -e 32 -c 2 -a 0 -i 0 -k RTR
+ -t 0.036574082 -s 2 -d -1 -p message -e 32 -c 2 -a 0 -i 1 -k RTR 
- -t 0.036574082 -s 2 -d -1 -p message -e 32 -c 2 -a 0 -i 1 -k RTR
h -t 0.036574082 -s 2 -d -1 -p message -e 32 -c 2 -a 0 -i 1 -k RTR
+ -t 0.037009082 -s 2 -d -1 -p message -e 90 -c 2 -a 0 -i 1 -k MAC 
- -t 0.037009082 -s 2 -d -1 -p message -e 90 -c 2 -a 0 -i 1 -k MAC
h -t 0.037009082 -s 2 -d -1 -p message -e 90 -c 2 -a 0 -i 1 -k MAC
+ -t 1.120124667 -s 1 -d -1 -p message -e 32 -c 2 -a 0 -i 2 -k RTR 
- -t 1.120124667 -s 1 -d -1 -p message -e 32 -c 2 -a 0 -i 2 -k RTR
h -t 1.120124667 -s 1 -d -1 -p message -e 32 -c 2 -a 0 -i 2 -k RTR
+ -t 1.120739667 -s 1 -d -1 -p message -e 90 -c 2 -a 0 -i 2 -k MAC 
- -t 1.120739667 -s 1 -d -1 -p message -e 90 -c 2 -a 0 -i 2 -k MAC
h -t 1.120739667 -s 1 -d -1 -p message -e 90 -c 2 -a 0 -i 2 -k MAC
r -t 1.121459903 -s 0 -d -1 -p message -e 32 -c 2 -a 0 -i 2 -k MAC
r -t 1.121484903 -s 0 -d -1 -p message -e 32 -c 2 -a 0 -i 2 -k RTR
+ -t 12.003518699 -s 1 -d -1 -p message -e 32 -c 2 -a 0 -i 3 -k RTR 
- -t 12.003518699 -s 1 -d -1 -p message -e 32 -c 2 -a 0 -i 3 -k RTR
h -t 12.003518699 -s 1 -d -1 -p message -e 32 -c 2 -a 0 -i 3 -k RTR
+ -t 12.003833699 -s 1 -d -1 -p message -e 90 -c 2 -a 0 -i 3 -k MAC 
- -t 12.003833699 -s 1 -d -1 -p message -e 90 -c 2 -a 0 -i 3 -k MAC
h -t 12.003833699 -s 1 -d -1 -p message -e 90 -c 2 -a 0 -i 3 -k MAC
r -t 12.004553935 -s 0 -d -1 -p message -e 32 -c 2 -a 0 -i 3 -k MAC
r -t 12.004578935 -s 0 -d -1 -p message -e 32 -c 2 -a 0 -i 3 -k RTR
+ -t 12.159913943 -s 2 -d -1 -p message -e 32 -c 2 -a 0 -i 4 -k RTR 
- -t 12.159913943 -s 2 -d -1 -p message -e 32 -c 2 -a 0 -i 4 -k RTR
h -t 12.159913943 -s 2 -d -1 -p message -e 32 -c 2 -a 0 -i 4 -k RTR
+ -t 12.160308943 -s 2 -d -1 -p message -e 90 -c 2 -a 0 -i 4 -k MAC 
- -t 12.160308943 -s 2 -d -1 -p message -e 90 -c 2 -a 0 -i 4 -k MAC
h -t 12.160308943 -s 2 -d -1 -p message -e 90 -c 2 -a 0 -i 4 -k MAC
+ -t 12.907660217 -s 0 -d -1 -p message -e 32 -c 2 -a 0 -i 5 -k RTR 
- -t 12.907660217 -s 0 -d -1 -p message -e 32 -c 2 -a 0 -i 5 -k RTR
h -t 12.907660217 -s 0 -d -1 -p message -e 32 -c 2 -a 0 -i 5 -k RTR
+ -t 12.907975217 -s 0 -d -1 -p message -e 90 -c 2 -a 0 -i 5 -k MAC 
- -t 12.907975217 -s 0 -d -1 -p message -e 90 -c 2 -a 0 -i 5 -k MAC
h -t 12.907975217 -s 0 -d -1 -p message -e 90 -c 2 -a 0 -i 5 -k MAC
r -t 12.908695452 -s 1 -d -1 -p message -e 32 -c 2 -a 0 -i 5 -k MAC
r -t 12.908720452 -s 1 -d -1 -p message -e 32 -c 2 -a 0 -i 5 -k RTR
+ -t 12.984229775 -s 1 -d -1 -p message -e 32 -c 2 -a 0 -i 6 -k RTR 
- -t 12.984229775 -s 1 -d -1 -p message -e 32 -c 2 -a 0 -i 6 -k RTR
h -t 12.984229775 -s 1 -d -1 -p message -e 32 -c 2 -a 0 -i 6 -k RTR
+ -t 12.984704775 -s 1 -d -1 -p message -e 90 -c 2 -a 0 -i 6 -k MAC 
- -t 12.984704775 -s 1 -d -1 -p message -e 90 -c 2 -a 0 -i 6 -k MAC
h -t 12.984704775 -s 1 -d -1 -p message -e 90 -c 2 -a 0 -i 6 -k MAC
r -t 12.985425011 -s 0 -d -1 -p message -e 32 -c 2 -a 0 -i 6 -k MAC
r -t 12.985450011 -s 0 -d -1 -p message -e 32 -c 2 -a 0 -i 6 -k RTR
+ -t 23.763598852 -s 2 -d -1 -p message -e 32 -c 2 -a 0 -i 8 -k RTR 
- -t 23.763598852 -s 2 -d -1 -p message -e 32 -c 2 -a 0 -i 8 -k RTR
h -t 23.763598852 -s 2 -d -1 -p message -e 32 -c 2 -a 0 -i 8 -k RTR
+ -t 23.763973852 -s 2 -d -1 -p message -e 90 -c 2 -a 0 -i 8 -k MAC 
- -t 23.763973852 -s 2 -d -1 -p message -e 90 -c 2 -a 0 -i 8 -k MAC
h -t 23.763973852 -s 2 -d -1 -p message -e 90 -c 2 -a 0 -i 8 -k MAC
+ -t 25.696700077 -s 0 -d -1 -p message -e 44 -c 2 -a 0 -i 9 -k RTR 
- -t 25.696700077 -s 0 -d -1 -p message -e 44 -c 2 -a 0 -i 9 -k RTR
h -t 25.696700077 -s 0 -d -1 -p message -e 44 -c 2 -a 0 -i 9 -k RTR
+ -t 25.697055077 -s 0 -d -1 -p message -e 102 -c 2 -a 0 -i 9 -k MAC 
- -t 25.697055077 -s 0 -d -1 -p message -e 102 -c 2 -a 0 -i 9 -k MAC
h -t 25.697055077 -s 0 -d -1 -p message -e 102 -c 2 -a 0 -i 9 -k MAC
r -t 25.697871313 -s 1 -d -1 -p message -e 44 -c 2 -a 0 -i 9 -k MAC
r -t 25.697896313 -s 1 -d -1 -p message -e 44 -c 2 -a 0 -i 9 -k RTR
+ -t 27.461932662 -s 1 -d -1 -p message -e 32 -c 2 -a 0 -i 10 -k RTR 
- -t 27.461932662 -s 1 -d -1 -p message -e 32 -c 2 -a 0 -i 10 -k RTR
h -t 27.461932662 -s 1 -d -1 -p message -e 32 -c 2 -a 0 -i 10 -k RTR
+ -t 27.462227662 -s 1 -d -1 -p message -e 90 -c 2 -a 0 -i 10 -k MAC 
- -t 27.462227662 -s 1 -d -1 -p message -e 90 -c 2 -a 0 -i 10 -k MAC
h -t 27.462227662 -s 1 -d -1 -p message -e 90 -c 2 -a 0 -i 10 -k MAC
r -t 27.462947898 -s 0 -d -1 -p message -e 32 -c 2 -a 0 -i 10 -k MAC
r -t 27.462972898 -s 0 -d -1 -p message -e 32 -c 2 -a 0 -i 10 -k RTR
+ -t 38.203956478 -s 2 -d -1 -p message -e 32 -c 2 -a 0 -i 11 -k RTR 
- -t 38.203956478 -s 2 -d -1 -p message -e 32 -c 2 -a 0 -i 11 -k RTR
h -t 38.203956478 -s 2 -d -1 -p message -e 32 -c 2 -a 0 -i 11 -k RTR
+ -t 38.204151478 -s 2 -d -1 -p message -e 90 -c 2 -a 0 -i 11 -k MAC 
- -t 38.204151478 -s 2 -d -1 -p message -e 90 -c 2 -a 0 -i 11 -k MAC
h -t 38.204151478 -s 2 -d -1 -p message -e 90 -c 2 -a 0 -i 11 -k MAC
+ -t 38.461703789 -s 0 -d -1 -p message -e 44 -c 2 -a 0 -i 12 -k RTR 
- -t 38.461703789 -s 0 -d -1 -p message -e 44 -c 2 -a 0 -i 12 -k RTR
h -t 38.461703789 -s 0 -d -1 -p message -e 44 -c 2 -a 0 -i 12 -k RTR
+ -t 38.461958789 -s 0 -d -1 -p message -e 102 -c 2 -a 0 -i 12 -k MAC 
- -t 38.461958789 -s 0 -d -1 -p message -e 102 -c 2 -a 0 -i 12 -k MAC
h -t 38.461958789 -s 0 -d -1 -p message -e 102 -c 2 -a 0 -i 12 -k MAC
r -t 38.462775025 -s 1 -d -1 -p message -e 44 -c 2 -a 0 -i 12 -k MAC
r -t 38.462800025 -s 1 -d -1 -p message -e 44 -c 2 -a 0 -i 12 -k RTR
+ -t 42.044959040 -s 1 -d -1 -p message -e 32 -c 2 -a 0 -i 13 -k RTR 
- -t 42.044959040 -s 1 -d -1 -p message -e 32 -c 2 -a 0 -i 13 -k RTR
h -t 42.044959040 -s 1 -d -1 -p message -e 32 -c 2 -a 0 -i 13 -k RTR
+ -t 42.045254040 -s 1 -d -1 -p message -e 90 -c 2 -a 0 -i 13 -k MAC 
- -t 42.045254040 -s 1 -d -1 -p message -e 90 -c 2 -a 0 -i 13 -k MAC
h -t 42.045254040 -s 1 -d -1 -p message -e 90 -c 2 -a 0 -i 13 -k MAC
r -t 42.045974276 -s 0 -d -1 -p message -e 32 -c 2 -a 0 -i 13 -k MAC
r -t 42.045999276 -s 0 -d -1 -p message -e 32 -c 2 -a 0 -i 13 -k RTR
+ -t 49.677394415 -s 2 -d -1 -p message -e 32 -c 2 -a 0 -i 14 -k RTR 
- -t 49.677394415 -s 2 -d -1 -p message -e 32 -c 2 -a 0 -i 14 -k RTR
h -t 49.677394415 -s 2 -d -1 -p message -e 32 -c 2 -a 0 -i 14 -k RTR
+ -t 49.677549415 -s 2 -d -1 -p message -e 90 -c 2 -a 0 -i 14 -k MAC 
- -t 49.677549415 -s 2 -d -1 -p message -e 90 -c 2 -a 0 -i 14 -k MAC
h -t 49.677549415 -s 2 -d -1 -p message -e 90 -c 2 -a 0 -i 14 -k MAC
+ -t 50.171847414 -s 0 -d -1 -p message -e 44 -c 2 -a 0 -i 15 -k RTR 
- -t 50.171847414 -s 0 -d -1 -p message -e 44 -c 2 -a 0 -i 15 -k RTR
h -t 50.171847414 -s 0 -d -1 -p message -e 44 -c 2 -a 0 -i 15 -k RTR
+ -t 50.172222414 -s 0 -d -1 -p message -e 102 -c 2 -a 0 -i 15 -k MAC 
- -t 50.172222414 -s 0 -d -1 -p message -e 102 -c 2 -a 0 -i 15 -k MAC
h -t 50.172222414 -s 0 -d -1 -p message -e 102 -c 2 -a 0 -i 15 -k MAC
r -t 50.173038649 -s 1 -d -1 -p message -e 44 -c 2 -a 0 -i 15 -k MAC
r -t 50.173063649 -s 1 -d -1 -p message -e 44 -c 2 -a 0 -i 15 -k RTR
+ -t 55.333122024 -s 1 -d -1 -p message -e 32 -c 2 -a 0 -i 16 -k RTR 
- -t 55.333122024 -s 1 -d -1 -p message -e 32 -c 2 -a 0 -i 16 -k RTR
h -t 55.333122024 -s 1 -d -1 -p message -e 32 -c 2 -a 0 -i 16 -k RTR
+ -t 55.333437024 -s 1 -d -1 -p message -e 90 -c 2 -a 0 -i 16 -k MAC 
- -t 55.333437024 -s 1 -d -1 -p message -e 90 -c 2 -a 0 -i 16 -k MAC
h -t 55.333437024 -s 1 -d -1 -p message -e 90 -c 2 -a 0 -i 16 -k MAC
r -t 55.334157260 -s 0 -d -1 -p message -e 32 -c 2 -a 0 -i 16 -k MAC
r -t 55.334182260 -s 0 -d -1 -p message -e 32 -c 2 -a 0 -i 16 -k RTR
+ -t 62.519086881 -s 2 -d -1 -p message -e 32 -c 2 -a 0 -i 17 -k RTR 
- -t 62.519086881 -s 2 -d -1 -p message -e 32 -c 2 -a 0 -i 17 -k RTR
h -t 62.519086881 -s 2 -d -1 -p message -e 32 -c 2 -a 0 -i 17 -k RTR
+ -t 62.519621881 -s 2 -d -1 -p message -e 90 -c 2 -a 0 -i 17 -k MAC 
- -t 62.519621881 -s 2 -d -1 -p message -e 90 -c 2 -a 0 -i 17 -k MAC
h -t 62.519621881 -s 2 -d -1 -p message -e 90 -c 2 -a 0 -i 17 -k MAC
+ -t 64.369015891 -s 0 -d -1 -p message -e 44 -c 2 -a 0 -i 18 -k RTR 
- -t 64.369015891 -s 0 -d -1 -p message -e 44 -c 2 -a 0 -i 18 -k RTR
h -t 64.369015891 -s 0 -d -1 -p message -e 44 -c 2 -a 0 -i 18 -k RTR
+ -t 64.369170891 -s 0 -d -1 -p message -e 102 -c 2 -a 0 -i 18 -k MAC 
- -t 64.369170891 -s 0 -d -1 -p message -e 102 -c 2 -a 0 -i 18 -k MAC
h -t 64.369170891 -s 0 -d -1 -p message -e 102 -c 2 -a 0 -i 18 -k MAC
r -t 64.369987127 -s 1 -d -1 -p message -e 44 -c 2 -a 0 -i 18 -k MAC
r -t 64.370012127 -s 1 -d -1 -p message -e 44 -c 2 -a 0 -i 18 -k RTR
+ -t 69.195213417 -s 1 -d -1 -p message -e 32 -c 2 -a 0 -i 19 -k RTR 
- -t 69.195213417 -s 1 -d -1 -p message -e 32 -c 2 -a 0 -i 19 -k RTR
h -t 69.195213417 -s 1 -d -1 -p message -e 32 -c 2 -a 0 -i 19 -k RTR
+ -t 69.195628417 -s 1 -d -1 -p message -e 90 -c 2 -a 0 -i 19 -k MAC 
- -t 69.195628417 -s 1 -d -1 -p message -e 90 -c 2 -a 0 -i 19 -k MAC
h -t 69.195628417 -s 1 -d -1 -p message -e 90 -c 2 -a 0 -i 19 -k MAC
r -t 69.196348653 -s 0 -d -1 -p message -e 32 -c 2 -a 0 -i 19 -k MAC
r -t 69.196373653 -s 0 -d -1 -p message -e 32 -c 2 -a 0 -i 19 -k RTR
+ -t 75.617990825 -s 2 -d -1 -p message -e 32 -c 2 -a 0 -i 20 -k RTR 
- -t 75.617990825 -s 2 -d -1 -p message -e 32 -c 2 -a 0 -i 20 -k RTR
h -t 75.617990825 -s 2 -d -1 -p message -e 32 -c 2 -a 0 -i 20 -k RTR
+ -t 75.618645825 -s 2 -d -1 -p message -e 90 -c 2 -a 0 -i 20 -k MAC 
- -t 75.618645825 -s 2 -d -1 -p message -e 90 -c 2 -a 0 -i 20 -k MAC
h -t 75.618645825 -s 2 -d -1 -p message -e 90 -c 2 -a 0 -i 20 -k MAC
+ -t 78.375862714 -s 0 -d -1 -p message -e 44 -c 2 -a 0 -i 21 -k RTR 
- -t 78.375862714 -s 0 -d -1 -p message -e 44 -c 2 -a 0 -i 21 -k RTR
h -t 78.375862714 -s 0 -d -1 -p message -e 44 -c 2 -a 0 -i 21 -k RTR
+ -t 78.376477714 -s 0 -d -1 -p message -e 102 -c 2 -a 0 -i 21 -k MAC 
- -t 78.376477714 -s 0 -d -1 -p message -e 102 -c 2 -a 0 -i 21 -k MAC
h -t 78.376477714 -s 0 -d -1 -p message -e 102 -c 2 -a 0 -i 21 -k MAC
r -t 78.377293950 -s 1 -d -1 -p message -e 44 -c 2 -a 0 -i 21 -k MAC
r -t 78.377318950 -s 1 -d -1 -p message -e 44 -c 2 -a 0 -i 21 -k RTR
+ -t 83.824247961 -s 1 -d -1 -p message -e 44 -c 2 -a 0 -i 22 -k RTR 
- -t 83.824247961 -s 1 -d -1 -p message -e 44 -c 2 -a 0 -i 22 -k RTR
h -t 83.824247961 -s 1 -d -1 -p message -e 44 -c 2 -a 0 -i 22 -k RTR
+ -t 83.824662961 -s 1 -d -1 -p message -e 102 -c 2 -a 0 -i 22 -k MAC 
- -t 83.824662961 -s 1 -d -1 -p message -e 102 -c 2 -a 0 -i 22 -k MAC
h -t 83.824662961 -s 1 -d -1 -p message -e 102 -c 2 -a 0 -i 22 -k MAC
r -t 83.825479196 -s 0 -d -1 -p message -e 44 -c 2 -a 0 -i 22 -k MAC
r -t 83.825504196 -s 0 -d -1 -p message -e 44 -c 2 -a 0 -i 22 -k RTR
+ -t 89.621533430 -s 2 -d -1 -p message -e 32 -c 2 -a 0 -i 23 -k RTR 
- -t 89.621533430 -s 2 -d -1 -p message -e 32 -c 2 -a 0 -i 23 -k RTR
h -t 89.621533430 -s 2 -d -1 -p message -e 32 -c 2 -a 0 -i 23 -k RTR
+ -t 89.621788430 -s 2 -d -1 -p message -e 90 -c 2 -a 0 -i 23 -k MAC 
- -t 89.621788430 -s 2 -d -1 -p message -e 90 -c 2 -a 0 -i 23 -k MAC
h -t 89.621788430 -s 2 -d -1 -p message -e 90 -c 2 -a 0 -i 23 -k MAC
+ -t 92.687831799 -s 0 -d -1 -p message -e 44 -c 2 -a 0 -i 24 -k RTR 
- -t 92.687831799 -s 0 -d -1 -p message -e 44 -c 2 -a 0 -i 24 -k RTR
h -t 92.687831799 -s 0 -d -1 -p message -e 44 -c 2 -a 0 -i 24 -k RTR
+ -t 92.688026799 -s 0 -d -1 -p message -e 102 -c 2 -a 0 -i 24 -k MAC 
- -t 92.688026799 -s 0 -d -1 -p message -e 102 -c 2 -a 0 -i 24 -k MAC
h -t 92.688026799 -s 0 -d -1 -p message -e 102 -c 2 -a 0 -i 24 -k MAC
r -t 92.688843035 -s 1 -d -1 -p message -e 44 -c 2 -a 0 -i 24 -k MAC
r -t 92.688868035 -s 1 -d -1 -p message -e 44 -c 2 -a 0 -i 24 -k RTR
+ -t 96.596697272 -s 1 -d -1 -p message -e 32 -c 2 -a 0 -i 25 -k RTR 
- -t 96.596697272 -s 1 -d -1 -p message -e 32 -c 2 -a 0 -i 25 -k RTR
h -t 96.596697272 -s 1 -d -1 -p message -e 32 -c 2 -a 0 -i 25 -k RTR
+ -t 96.596912272 -s 1 -d -1 -p message -e 90 -c 2 -a 0 -i 25 -k MAC 
- -t 96.596912272 -s 1 -d -1 -p message -e 90 -c 2 -a 0 -i 25 -k MAC
h -t 96.596912272 -s 1 -d -1 -p message -e 90 -c 2 -a 0 -i 25 -k MAC
r -t 96.597632508 -s 0 -d -1 -p message -e 32 -c 2 -a 0 -i 25 -k MAC
r -t 96.597657508 -s 0 -d -1 -p message -e 32 -c 2 -a 0 -i 25 -k RTR
n -t 100.000000 -s 1 -x 100.000000 -y 100.000000 -U 10.606602 -V 10.606602 -T 42.426407
+ -t 101.192452092 -s 2 -d -1 -p message -e 32 -c 2 -a 0 -i 26 -k RTR 
- -t 101.192452092 -s 2 -d -1 -p message -e 32 -c 2 -a 0 -i 26 -k RTR
h -t 101.192452092 -s 2 -d -1 -p message -e 32 -c 2 -a 0 -i 26 -k RTR
+ -t 101.193027092 -s 2 -d -1 -p message -e 90 -c 2 -a 0 -i 26 -k MAC 
- -t 101.193027092 -s 2 -d -1 -p message -e 90 -c 2 -a 0 -i 26 -k MAC
h -t 101.193027092 -s 2 -d -1 -p message -e 90 -c 2 -a 0 -i 26 -k MAC
+ -t 104.057837306 -s 0 -d -1 -p message -e 44 -c 2 -a 0 -i 27 -k RTR 
- -t 104.057837306 -s 0 -d -1 -p message -e 44 -c 2 -a 0 -i 27 -k RTR
h -t 104.057837306 -s 0 -d -1 -p message -e 44 -c 2 -a 0 -i 27 -k RTR
+ -t 104.058172306 -s 0 -d -1 -p message -e 102 -c 2 -a 0 -i 27 -k MAC 
- -t 104.058172306 -s 0 -d -1 -p message -e 102 -c 2 -a 0 -i 27 -k MAC
h -t 104.058172306 -s 0 -d -1 -p message -e 102 -c 2 -a 0 -i 27 -k MAC
r -t 104.058988744 -s 1 -d -1 -p message -e 44 -c 2 -a 0 -i 27 -k MAC
r -t 104.059013744 -s 1 -d -1 -p message -e 44 -c 2 -a 0 -i 27 -k RTR
+ -t 109.055245472 -s 1 -d -1 -p message -e 44 -c 2 -a 0 -i 28 -k RTR 
- -t 109.055245472 -s 1 -d -1 -p message -e 44 -c 2 -a 0 -i 28 -k RTR
h -t 109.055245472 -s 1 -d -1 -p message -e 44 -c 2 -a 0 -i 28 -k RTR
+ -t 109.055840472 -s 1 -d -1 -p message -e 102 -c 2 -a 0 -i 28 -k MAC 
- -t 109.055840472 -s 1 -d -1 -p message -e 102 -c 2 -a 0 -i 28 -k MAC
h -t 109.055840472 -s 1 -d -1 -p message -e 102 -c 2 -a 0 -i 28 -k MAC
r -t 109.056657160 -s 0 -d -1 -p message -e 44 -c 2 -a 0 -i 28 -k MAC
r -t 109.056682160 -s 0 -d -1 -p message -e 44 -c 2 -a 0 -i 28 -k RTR
+ -t 113.079777191 -s 2 -d -1 -p message -e 32 -c 2 -a 0 -i 29 -k RTR 
- -t 113.079777191 -s 2 -d -1 -p message -e 32 -c 2 -a 0 -i 29 -k RTR
h -t 113.079777191 -s 2 -d -1 -p message -e 32 -c 2 -a 0 -i 29 -k RTR
+ -t 113.079872191 -s 2 -d -1 -p message -e 90 -c 2 -a 0 -i 29 -k MAC 
- -t 113.079872191 -s 2 -d -1 -p message -e 90 -c 2 -a 0 -i 29 -k MAC
h -t 113.079872191 -s 2 -d -1 -p message -e 90 -c 2 -a 0 -i 29 -k MAC
+ -t 118.267094177 -s 0 -d -1 -p message -e 44 -c 2 -a 0 -i 30 -k RTR 
- -t 118.267094177 -s 0 -d -1 -p message -e 44 -c 2 -a 0 -i 30 -k RTR
h -t 118.267094177 -s 0 -d -1 -p message -e 44 -c 2 -a 0 -i 30 -k RTR
+ -t 118.267189177 -s 0 -d -1 -p message -e 102 -c 2 -a 0 -i 30 -k MAC 
- -t 118.267189177 -s 0 -d -1 -p message -e 102 -c 2 -a 0 -i 30 -k MAC
h -t 118.267189177 -s 0 -d -1 -p message -e 102 -c 2 -a 0 -i 30 -k MAC
+ -t 120.368006475 -s 1 -d -1 -p message -e 44 -c 2 -a 0 -i 31 -k RTR 
- -t 120.368006475 -s 1 -d -1 -p message -e 44 -c 2 -a 0 -i 31 -k RTR
h -t 120.368006475 -s 1 -d -1 -p message -e 44 -c 2 -a 0 -i 31 -k RTR
+ -t 120.368561475 -s 1 -d -1 -p message -e 102 -c 2 -a 0 -i 31 -k MAC 
- -t 120.368561475 -s 1 -d -1 -p message -e 102 -c 2 -a 0 -i 31 -k MAC
h -t 120.368561475 -s 1 -d -1 -p message -e 102 -c 2 -a 0 -i 31 -k MAC
+ -t 124.774964409 -s 2 -d -1 -p message -e 32 -c 2 -a 0 -i 32 -k RTR 
- -t 124.774964409 -s 2 -d -1 -p message -e 32 -c 2 -a 0 -i 32 -k RTR
h -t 124.774964409 -s 2 -d -1 -p message -e 32 -c 2 -a 0 -i 32 -k RTR
+ -t 124.775219409 -s 2 -d -1 -p message -e 90 -c 2 -a 0 -i 32 -k MAC 
- -t 124.775219409 -s 2 -d -1 -p message -e 90 -c 2 -a 0 -i 32 -k MAC
h -t 124.775219409 -s 2 -d -1 -p message -e 90 -c 2 -a 0 -i 32 -k MAC
+ -t 131.107500034 -s 0 -d -1 -p message -e 44 -c 2 -a 0 -i 33 -k RTR 
- -t 131.107500034 -s 0 -d -1 -p message -e 44 -c 2 -a 0 -i 33 -k RTR
h -t 131.107500034 -s 0 -d -1 -p message -e 44 -c 2 -a 0 -i 33 -k RTR
+ -t 131.107675034 -s 0 -d -1 -p message -e 102 -c 2 -a 0 -i 33 -k MAC 
- -t 131.107675034 -s 0 -d -1 -p message -e 102 -c 2 -a 0 -i 33 -k MAC
h -t 131.107675034 -s 0 -d -1 -p message -e 102 -c 2 -a 0 -i 33 -k MAC
+ -t 134.978430283 -s 1 -d -1 -p message -e 44 -c 2 -a 0 -i 34 -k RTR 
- -t 134.978430283 -s 1 -d -1 -p message -e 44 -c 2 -a 0 -i 34 -k RTR
h -t 134.978430283 -s 1 -d -1 -p message -e 44 -c 2 -a 0 -i 34 -k RTR
+ -t 134.979085283 -s 1 -d -1 -p message -e 102 -c 2 -a 0 -i 34 -k MAC 
- -t 134.979085283 -s 1 -d -1 -p message -e 102 -c 2 -a 0 -i 34 -k MAC
h -t 134.979085283 -s 1 -d -1 -p message -e 102 -c 2 -a 0 -i 34 -k MAC
r -t 134.979901892 -s 2 -d -1 -p message -e 44 -c 2 -a 0 -i 34 -k MAC
r -t 134.979926892 -s 2 -d -1 -p message -e 44 -c 2 -a 0 -i 34 -k RTR
+ -t 136.914597174 -s 2 -d -1 -p message -e 32 -c 2 -a 0 -i 35 -k RTR 
- -t 136.914597174 -s 2 -d -1 -p message -e 32 -c 2 -a 0 -i 35 -k RTR
h -t 136.914597174 -s 2 -d -1 -p message -e 32 -c 2 -a 0 -i 35 -k RTR
+ -t 136.914812174 -s 2 -d -1 -p message -e 90 -c 2 -a 0 -i 35 -k MAC 
- -t 136.914812174 -s 2 -d -1 -p message -e 90 -c 2 -a 0 -i 35 -k MAC
h -t 136.914812174 -s 2 -d -1 -p message -e 90 -c 2 -a 0 -i 35 -k MAC
r -t 136.915532685 -s 1 -d -1 -p message -e 32 -c 2 -a 0 -i 35 -k MAC
r -t 136.915557685 -s 1 -d -1 -p message -e 32 -c 2 -a 0 -i 35 -k RTR
+ -t 142.501343291 -s 0 -d -1 -p message -e 44 -c 2 -a 0 -i 36 -k RTR 
- -t 142.501343291 -s 0 -d -1 -p message -e 44 -c 2 -a 0 -i 36 -k RTR
h -t 142.501343291 -s 0 -d -1 -p message -e 44 -c 2 -a 0 -i 36 -k RTR
+ -t 142.501598291 -s 0 -d -1 -p message -e 102 -c 2 -a 0 -i 36 -k MAC 
- -t 142.501598291 -s 0 -d -1 -p message -e 102 -c 2 -a 0 -i 36 -k MAC
h -t 142.501598291 -s 0 -d -1 -p message -e 102 -c 2 -a 0 -i 36 -k MAC
+ -t 146.989504087 -s 2 -d -1 -p message -e 44 -c 2 -a 0 -i 37 -k RTR 
- -t 146.989504087 -s 2 -d -1 -p message -e 44 -c 2 -a 0 -i 37 -k RTR
h -t 146.989504087 -s 2 -d -1 -p message -e 44 -c 2 -a 0 -i 37 -k RTR
+ -t 146.990079087 -s 2 -d -1 -p message -e 102 -c 2 -a 0 -i 37 -k MAC 
- -t 146.990079087 -s 2 -d -1 -p message -e 102 -c 2 -a 0 -i 37 -k MAC
h -t 146.990079087 -s 2 -d -1 -p message -e 102 -c 2 -a 0 -i 37 -k MAC
r -t 146.990895323 -s 1 -d -1 -p message -e 44 -c 2 -a 0 -i 37 -k MAC
r -t 146.990920323 -s 1 -d -1 -p message -e 44 -c 2 -a 0 -i 37 -k RTR
+ -t 147.989377132 -s 2 -d -1 -p message -e 44 -c 2 -a 0 -i 38 -k RTR 
- -t 147.989377132 -s 2 -d -1 -p message -e 44 -c 2 -a 0 -i 38 -k RTR
h -t 147.989377132 -s 2 -d -1 -p message -e 44 -c 2 -a 0 -i 38 -k RTR
+ -t 147.989572132 -s 2 -d -1 -p message -e 102 -c 2 -a 0 -i 38 -k MAC 
- -t 147.989572132 -s 2 -d -1 -p message -e 102 -c 2 -a 0 -i 38 -k MAC
h -t 147.989572132 -s 2 -d -1 -p message -e 102 -c 2 -a 0 -i 38 -k MAC
r -t 147.990388368 -s 1 -d -1 -p message -e 44 -c 2 -a 0 -i 38 -k MAC
r -t 147.990413368 -s 1 -d -1 -p message -e 44 -c 2 -a 0 -i 38 -k RTR
+ -t 148.916222535 -s 1 -d -1 -p message -e 32 -c 2 -a 0 -i 39 -k RTR 
- -t 148.916222535 -s 1 -d -1 -p message -e 32 -c 2 -a 0 -i 39 -k RTR
h -t 148.916222535 -s 1 -d -1 -p message -e 32 -c 2 -a 0 -i 39 -k RTR
+ -t 148.916797535 -s 1 -d -1 -p message -e 90 -c 2 -a 0 -i 39 -k MAC 
- -t 148.916797535 -s 1 -d -1 -p message -e 90 -c 2 -a 0 -i 39 -k MAC
h -t 148.916797535 -s 1 -d -1 -p message -e 90 -c 2 -a 0 -i 39 -k MAC
r -t 148.917517771 -s 2 -d -1 -p message -e 32 -c 2 -a 0 -i 39 -k MAC
r -t 148.917542771 -s 2 -d -1 -p message -e 32 -c 2 -a 0 -i 39 -k RTR
+ -t 149.348376666 -s 1 -d -1 -p message -e 56 -c 2 -a 0 -i 40 -k RTR 
- -t 149.348376666 -s 1 -d -1 -p message -e 56 -c 2 -a 0 -i 40 -k RTR
h -t 149.348376666 -s 1 -d -1 -p message -e 56 -c 2 -a 0 -i 40 -k RTR
+ -t 149.348991666 -s 1 -d -1 -p message -e 114 -c 2 -a 0 -i 40 -k MAC 
- -t 149.348991666 -s 1 -d -1 -p message -e 114 -c 2 -a 0 -i 40 -k MAC
h -t 149.348991666 -s 1 -d -1 -p message -e 114 -c 2 -a 0 -i 40 -k MAC
r -t 149.349903902 -s 2 -d -1 -p message -e 56 -c 2 -a 0 -i 40 -k MAC
r -t 149.349928902 -s 2 -d -1 -p message -e 56 -c 2 -a 0 -i 40 -k RTR
+ -t 150.553201597 -s 2 -d -1 -p message -e 44 -c 2 -a 0 -i 42 -k RTR 
- -t 150.553201597 -s 2 -d -1 -p message -e 44 -c 2 -a 0 -i 42 -k RTR
h -t 150.553201597 -s 2 -d -1 -p message -e 44 -c 2 -a 0 -i 42 -k RTR
+ -t 150.553276597 -s 2 -d -1 -p message -e 102 -c 2 -a 0 -i 42 -k MAC 
- -t 150.553276597 -s 2 -d -1 -p message -e 102 -c 2 -a 0 -i 42 -k MAC
h -t 150.553276597 -s 2 -d -1 -p message -e 102 -c 2 -a 0 -i 42 -k MAC
r -t 150.554092833 -s 1 -d -1 -p message -e 44 -c 2 -a 0 -i 42 -k MAC
r -t 150.554117833 -s 1 -d -1 -p message -e 44 -c 2 -a 0 -i 42 -k RTR
+ -t 154.058300719 -s 0 -d -1 -p message -e 32 -c 2 -a 0 -i 43 -k RTR 
- -t 154.058300719 -s 0 -d -1 -p message -e 32 -c 2 -a 0 -i 43 -k RTR
h -t 154.058300719 -s 0 -d -1 -p message -e 32 -c 2 -a 0 -i 43 -k RTR
+ -t 154.058675719 -s 0 -d -1 -p message -e 90 -c 2 -a 0 -i 43 -k MAC 
- -t 154.058675719 -s 0 -d -1 -p message -e 90 -c 2 -a 0 -i 43 -k MAC
h -t 154.058675719 -s 0 -d -1 -p message -e 90 -c 2 -a 0 -i 43 -k MAC
+ -t 157.277737864 -s 0 -d -1 -p message -e 44 -c 2 -a 0 -i 44 -k RTR 
- -t 157.277737864 -s 0 -d -1 -p message -e 44 -c 2 -a 0 -i 44 -k RTR
h -t 157.277737864 -s 0 -d -1 -p message -e 44 -c 2 -a 0 -i 44 -k RTR
+ -t 157.277852864 -s 0 -d -1 -p message -e 102 -c 2 -a 0 -i 44 -k MAC 
- -t 157.277852864 -s 0 -d -1 -p message -e 102 -c 2 -a 0 -i 44 -k MAC
h -t 157.277852864 -s 0 -d -1 -p message -e 102 -c 2 -a 0 -i 44 -k MAC
+ -t 162.569428484 -s 2 -d -1 -p message -e 56 -c 2 -a 0 -i 45 -k RTR 
- -t 162.569428484 -s 2 -d -1 -p message -e 56 -c 2 -a 0 -i 45 -k RTR
h -t 162.569428484 -s 2 -d -1 -p message -e 56 -c 2 -a 0 -i 45 -k RTR
+ -t 162.570103484 -s 2 -d -1 -p message -e 114 -c 2 -a 0 -i 45 -k MAC 
- -t 162.570103484 -s 2 -d -1 -p message -e 114 -c 2 -a 0 -i 45 -k MAC
h -t 162.570103484 -s 2 -d -1 -p message -e 114 -c 2 -a 0 -i 45 -k MAC
r -t 162.571015719 -s 1 -d -1 -p message -e 56 -c 2 -a 0 -i 45 -k MAC
r -t 162.571040719 -s 1 -d -1 -p message -e 56 -c 2 -a 0 -i 45 -k RTR
+ -t 163.327463792 -s 1 -d -1 -p message -e 44 -c 2 -a 0 -i 46 -k RTR 
- -t 163.327463792 -s 1 -d -1 -p message -e 44 -c 2 -a 0 -i 46 -k RTR
h -t 163.327463792 -s 1 -d -1 -p message -e 44 -c 2 -a 0 -i 46 -k RTR
+ -t 163.327918792 -s 1 -d -1 -p message -e 102 -c 2 -a 0 -i 46 -k MAC 
- -t 163.327918792 -s 1 -d -1 -p message -e 102 -c 2 -a 0 -i 46 -k MAC
h -t 163.327918792 -s 1 -d -1 -p message -e 102 -c 2 -a 0 -i 46 -k MAC
r -t 163.328735028 -s 2 -d -1 -p message -e 44 -c 2 -a 0 -i 46 -k MAC
r -t 163.328760028 -s 2 -d -1 -p message -e 44 -c 2 -a 0 -i 46 -k RTR
+ -t 170.980080333 -s 0 -d -1 -p message -e 44 -c 2 -a 0 -i 47 -k RTR 
- -t 170.980080333 -s 0 -d -1 -p message -e 44 -c 2 -a 0 -i 47 -k RTR
h -t 170.980080333 -s 0 -d -1 -p message -e 44 -c 2 -a 0 -i 47 -k RTR
+ -t 170.980275333 -s 0 -d -1 -p message -e 102 -c 2 -a 0 -i 47 -k MAC 
- -t 170.980275333 -s 0 -d -1 -p message -e 102 -c 2 -a 0 -i 47 -k MAC
h -t 170.980275333 -s 0 -d -1 -p message -e 102 -c 2 -a 0 -i 47 -k MAC
+ -t 174.545458461 -s 2 -d -1 -p message -e 56 -c 2 -a 0 -i 48 -k RTR 
- -t 174.545458461 -s 2 -d -1 -p message -e 56 -c 2 -a 0 -i 48 -k RTR
h -t 174.545458461 -s 2 -d -1 -p message -e 56 -c 2 -a 0 -i 48 -k RTR
+ -t 174.545613461 -s 2 -d -1 -p message -e 114 -c 2 -a 0 -i 48 -k MAC 
- -t 174.545613461 -s 2 -d -1 -p message -e 114 -c 2 -a 0 -i 48 -k MAC
h -t 174.545613461 -s 2 -d -1 -p message -e 114 -c 2 -a 0 -i 48 -k MAC
r -t 174.546525697 -s 1 -d -1 -p message -e 56 -c 2 -a 0 -i 48 -k MAC
r -t 174.546550697 -s 1 -d -1 -p message -e 56 -c 2 -a 0 -i 48 -k RTR
+ -t 174.779753349 -s 1 -d -1 -p message -e 44 -c 2 -a 0 -i 49 -k RTR 
- -t 174.779753349 -s 1 -d -1 -p message -e 44 -c 2 -a 0 -i 49 -k RTR
h -t 174.779753349 -s 1 -d -1 -p message -e 44 -c 2 -a 0 -i 49 -k RTR
+ -t 174.779988349 -s 1 -d -1 -p message -e 102 -c 2 -a 0 -i 49 -k MAC 
- -t 174.779988349 -s 1 -d -1 -p message -e 102 -c 2 -a 0 -i 49 -k MAC
h -t 174.779988349 -s 1 -d -1 -p message -e 102 -c 2 -a 0 -i 49 -k MAC
r -t 174.780804585 -s 2 -d -1 -p message -e 44 -c 2 -a 0 -i 49 -k MAC
r -t 174.780829585 -s 2 -d -1 -p message -e 44 -c 2 -a 0 -i 49 -k RTR
+ -t 185.814517306 -s 0 -d -1 -p message -e 44 -c 2 -a 0 -i 50 -k RTR 
- -t 185.814517306 -s 0 -d -1 -p message -e 44 -c 2 -a 0 -i 50 -k RTR
h -t 185.814517306 -s 0 -d -1 -p message -e 44 -c 2 -a 0 -i 50 -k RTR
+ -t 185.815112306 -s 0 -d -1 -p message -e 102 -c 2 -a 0 -i 50 -k MAC 
- -t 185.815112306 -s 0 -d -1 -p message -e 102 -c 2 -a 0 -i 50 -k MAC
h -t 185.815112306 -s 0 -d -1 -p message -e 102 -c 2 -a 0 -i 50 -k MAC
+ -t 188.205086508 -s 1 -d -1 -p message -e 56 -c 2 -a 0 -i 51 -k RTR 
- -t 188.205086508 -s 1 -d -1 -p message -e 56 -c 2 -a 0 -i 51 -k RTR
h -t 188.205086508 -s 1 -d -1 -p message -e 56 -c 2 -a 0 -i 51 -k RTR
+ -t 188.205221508 -s 1 -d -1 -p message -e 114 -c 2 -a 0 -i 51 -k MAC 
- -t 188.205221508 -s 1 -d -1 -p message -e 114 -c 2 -a 0 -i 51 -k MAC
h -t 188.205221508 -s 1 -d -1 -p message -e 114 -c 2 -a 0 -i 51 -k MAC
r -t 188.206133744 -s 2 -d -1 -p message -e 56 -c 2 -a 0 -i 51 -k MAC
r -t 188.206158744 -s 2 -d -1 -p message -e 56 -c 2 -a 0 -i 51 -k RTR
+ -t 188.905416499 -s 2 -d -1 -p message -e 44 -c 2 -a 0 -i 52 -k RTR 
- -t 188.905416499 -s 2 -d -1 -p message -e 44 -c 2 -a 0 -i 52 -k RTR
h -t 188.905416499 -s 2 -d -1 -p message -e 44 -c 2 -a 0 -i 52 -k RTR
+ -t 188.905531499 -s 2 -d -1 -p message -e 102 -c 2 -a 0 -i 52 -k MAC 
- -t 188.905531499 -s 2 -d -1 -p message -e 102 -c 2 -a 0 -i 52 -k MAC
h -t 188.905531499 -s 2 -d -1 -p message -e 102 -c 2 -a 0 -i 52 -k MAC
r -t 188.906347735 -s 1 -d -1 -p message -e 44 -c 2 -a 0 -i 52 -k MAC
r -t 188.906372735 -s 1 -d -1 -p message -e 44 -c 2 -a 0 -i 52 -k RTR
n -t 190.000000 -s 1 -x 550.000000 -y 550.000000 -U -10.606602 -V -10.606602 -T 45.254834
+ -t 200.251356744 -s 1 -d -1 -p message -e 56 -c 2 -a 0 -i 53 -k RTR 
- -t 200.251356744 -s 1 -d -1 -p message -e 56 -c 2 -a 0 -i 53 -k RTR
h -t 200.251356744 -s 1 -d -1 -p message -e 56 -c 2 -a 0 -i 53 -k RTR
+ -t 200.251591744 -s 1 -d -1 -p message -e 114 -c 2 -a 0 -i 53 -k MAC 
- -t 200.251591744 -s 1 -d -1 -p message -e 114 -c 2 -a 0 -i 53 -k MAC
h -t 200.251591744 -s 1 -d -1 -p message -e 114 -c 2 -a 0 -i 53 -k MAC
r -t 200.252504493 -s 2 -d -1 -p message -e 56 -c 2 -a 0 -i 53 -k MAC
r -t 200.252529493 -s 2 -d -1 -p message -e 56 -c 2 -a 0 -i 53 -k RTR
+ -t 200.278505139 -s 0 -d -1 -p message -e 44 -c 2 -a 0 -i 54 -k RTR 
- -t 200.278505139 -s 0 -d -1 -p message -e 44 -c 2 -a 0 -i 54 -k RTR
h -t 200.278505139 -s 0 -d -1 -p message -e 44 -c 2 -a 0 -i 54 -k RTR
+ -t 200.278940139 -s 0 -d -1 -p message -e 102 -c 2 -a 0 -i 54 -k MAC 
- -t 200.278940139 -s 0 -d -1 -p message -e 102 -c 2 -a 0 -i 54 -k MAC
h -t 200.278940139 -s 0 -d -1 -p message -e 102 -c 2 -a 0 -i 54 -k MAC
+ -t 201.168940627 -s 2 -d -1 -p message -e 44 -c 2 -a 0 -i 55 -k RTR 
- -t 201.168940627 -s 2 -d -1 -p message -e 44 -c 2 -a 0 -i 55 -k RTR
h -t 201.168940627 -s 2 -d -1 -p message -e 44 -c 2 -a 0 -i 55 -k RTR
+ -t 201.169015627 -s 2 -d -1 -p message -e 102 -c 2 -a 0 -i 55 -k MAC 
- -t 201.169015627 -s 2 -d -1 -p message -e 102 -c 2 -a 0 -i 55 -k MAC
h -t 201.169015627 -s 2 -d -1 -p message -e 102 -c 2 -a 0 -i 55 -k MAC
r -t 201.169832421 -s 1 -d -1 -p message -e 44 -c 2 -a 0 -i 55 -k MAC
r -t 201.169857421 -s 1 -d -1 -p message -e 44 -c 2 -a 0 -i 55 -k RTR
+ -t 212.515027392 -s 0 -d -1 -p message -e 44 -c 2 -a 0 -i 56 -k RTR 
- -t 212.515027392 -s 0 -d -1 -p message -e 44 -c 2 -a 0 -i 56 -k RTR
h -t 212.515027392 -s 0 -d -1 -p message -e 44 -c 2 -a 0 -i 56 -k RTR
+ -t 212.515502392 -s 0 -d -1 -p message -e 102 -c 2 -a 0 -i 56 -k MAC 
- -t 212.515502392 -s 0 -d -1 -p message -e 102 -c 2 -a 0 -i 56 -k MAC
h -t 212.515502392 -s 0 -d -1 -p message -e 102 -c 2 -a 0 -i 56 -k MAC
+ -t 213.327713011 -s 1 -d -1 -p message -e 56 -c 2 -a 0 -i 57 -k RTR 
- -t 213.327713011 -s 1 -d -1 -p message -e 56 -c 2 -a 0 -i 57 -k RTR
h -t 213.327713011 -s 1 -d -1 -p message -e 56 -c 2 -a 0 -i 57 -k RTR
+ -t 213.328168011 -s 1 -d -1 -p message -e 114 -c 2 -a 0 -i 57 -k MAC 
- -t 213.328168011 -s 1 -d -1 -p message -e 114 -c 2 -a 0 -i 57 -k MAC
h -t 213.328168011 -s 1 -d -1 -p message -e 114 -c 2 -a 0 -i 57 -k MAC
+ -t 214.212735214 -s 2 -d -1 -p message -e 56 -c 2 -a 0 -i 58 -k RTR 
- -t 214.212735214 -s 2 -d -1 -p message -e 56 -c 2 -a 0 -i 58 -k RTR
h -t 214.212735214 -s 2 -d -1 -p message -e 56 -c 2 -a 0 -i 58 -k RTR
+ -t 214.212970214 -s 2 -d -1 -p message -e 114 -c 2 -a 0 -i 58 -k MAC 
- -t 214.212970214 -s 2 -d -1 -p message -e 114 -c 2 -a 0 -i 58 -k MAC
h -t 214.212970214 -s 2 -d -1 -p message -e 114 -c 2 -a 0 -i 58 -k MAC
+ -t 225.656150203 -s 0 -d -1 -p message -e 44 -c 2 -a 0 -i 59 -k RTR 
- -t 225.656150203 -s 0 -d -1 -p message -e 44 -c 2 -a 0 -i 59 -k RTR
h -t 225.656150203 -s 0 -d -1 -p message -e 44 -c 2 -a 0 -i 59 -k RTR
+ -t 225.656645203 -s 0 -d -1 -p message -e 102 -c 2 -a 0 -i 59 -k MAC 
- -t 225.656645203 -s 0 -d -1 -p message -e 102 -c 2 -a 0 -i 59 -k MAC
h -t 225.656645203 -s 0 -d -1 -p message -e 102 -c 2 -a 0 -i 59 -k MAC
r -t 225.657461777 -s 1 -d -1 -p message -e 44 -c 2 -a 0 -i 59 -k MAC
r -t 225.657486777 -s 1 -d -1 -p message -e 44 -c 2 -a 0 -i 59 -k RTR
+ -t 225.660793331 -s 1 -d -1 -p message -e 56 -c 2 -a 0 -i 60 -k RTR 
- -t 225.660793331 -s 1 -d -1 -p message -e 56 -c 2 -a 0 -i 60 -k RTR
h -t 225.660793331 -s 1 -d -1 -p message -e 56 -c 2 -a 0 -i 60 -k RTR
+ -t 225.661088331 -s 1 -d -1 -p message -e 114 -c 2 -a 0 -i 60 -k MAC 
- -t 225.661088331 -s 1 -d -1 -p message -e 114 -c 2 -a 0 -i 60 -k MAC