+ 0.1 0 2 cbr 500 ------- 1 0.0 2.0 0 0
- 0.1 0 2 cbr 500 ------- 1 0.0 2.0 0 0
+ 0.105 0 2 cbr 500 ------- 1 0.0 2.0 1 1
- 0.105 0 2 cbr 500 ------- 1 0.0 2.0 1 1
+ 0.11 0 2 cbr 500 ------- 1 0.0 2.0 2 2
- 0.11 0 2 cbr 500 ------- 1 0.0 2.0 2 2
+ 0.115 0 2 cbr 500 ------- 1 0.0 2.0 3 3
- 0.115 0 2 cbr 500 ------- 1 0.0 2.0 3 3
r 0.1152 0 2 cbr 500 ------- 1 0.0 2.0 0 0
+ 0.12 0 2 cbr 500 ------- 1 0.0 2.0 4 4
- 0.12 0 2 cbr 500 ------- 1 0.0 2.0 4 4
r 0.1202 0 2 cbr 500 ------- 1 0.0 2.0 1 1
+ 0.125 0 2 cbr 500 ------- 1 0.0 2.0 5 5
- 0.125 0 2 cbr 500 ------- 1 0.0 2.0 5 5
r 0.1252 0 2 cbr 500 ------- 1 0.0 2.0 2 2
+ 0.13 0 2 cbr 500 ------- 1 0.0 2.0 6 6
- 0.13 0 2 cbr 500 ------- 1 0.0 2.0 6 6
r 0.1302 0 2 cbr 500 ------- 1 0.0 2.0 3 3
+ 0.135 0 2 cbr 500 ------- 1 0.0 2.0 7 7
- 0.135 0 2 cbr 500 ------- 1 0.0 2.0 7 7
r 0.1352 0 2 cbr 500 ------- 1 0.0 2.0 4 4
+ 0.14 0 2 cbr 500 ------- 1 0.0 2.0 8 8
- 0.14 0 2 cbr 500 ------- 1 0.0 2.0 8 8
r 0.1402 0 2 cbr 500 ------- 1 0.0 2.0 5 5
+ 0.145 0 2 cbr 500 ------- 1 0.0 2.0 9 9
- 0.145 0 2 cbr 500 ------- 1 0.0 2.0 9 9
r 0.1452 0 2 cbr 500 ------- 1 0.0 2.0 6 6
+ 0.15 0 2 cbr 500 ------- 1 0.0 2.0 10 10
- 0.15 0 2 cbr 500 ------- 1 0.0 2.0 10 10
r 0.1502 0 2 cbr 500 ------- 1 0.0 2.0 7 7
+ 0.155 0 2 cbr 500 ------- 1 0.0 2.0 11 11
- 0.155 0 2 cbr 500 ------- 1 0.0 2.0 11 11
r 0.1552 0 2 cbr 500 ------- 1 0.0 2.0 8 8
+ 0.16 0 2 cbr 500 ------- 1 0.0 2.0 12 12
- 0.16 0 2 cbr 500 ------- 1 0.0 2.0 12 12
r 0.1602 0 2 cbr 500 ------- 1 0.0 2.0 9 9
+ 0.165 0 2 cbr 500 ------- 1 0.0 2.0 13 13
- 0.165 0 2 cbr 500 ------- 1 0.0 2.0 13 13
r 0.1652 0 2 cbr 500 ------- 1 0.0 2.0 10 10
+ 0.17 0 2 cbr 500 ------- 1 0.0 2.0 14 14
- 0.17 0 2 cbr 500 ------- 1 0.0 2.0 14 14
r 0.1702 0 2 cbr 500 ------- 1 0.0 2.0 11 11
+ 0.175 0 2 cbr 500 ------- 1 0.0 2.0 15 15
- 0.175 0 2 cbr 500 ------- 1 0.0 2.0 15 15
r 0.1752 0 2 cbr 500 ------- 1 0.0 2.0 12 12
+ 0.18 0 2 cbr 500 ------- 1 0.0 2.0 16 16
- 0.18 0 2 cbr 500 ------- 1 0.0 2.0 16 16
r 0.1802 0 2 cbr 500 ------- 1 0.0 2.0 13 13
+ 0.185 0 2 cbr 500 ------- 1 0.0 2.0 17 17
- 0.185 0 2 cbr 500 ------- 1 0.0 2.0 17 17
r 0.1852 0 2 cbr 500 ------- 1 0.0 2.0 14 14
+ 0.19 0 2 cbr 500 ------- 1 0.0 2.0 18 18
- 0.19 0 2 cbr 500 ------- 1 0.0 2.0 18 18
r 0.1902 0 2 cbr 500 ------- 1 0.0 2.0 15 15
+ 0.195 0 2 cbr 500 ------- 1 0.0 2.0 19 19
- 0.195 0 2 cbr 500 ------- 1 0.0 2.0 19 19
r 0.1952 0 2 cbr 500 ------- 1 0.0 2.0 16 16
+ 0.2 1 2 cbr 1000 ------- 2 1.0 2.0 0 20
- 0.2 1 2 cbr 1000 ------- 2 1.0 2.0 0 20
+ 0.2 0 2 cbr 500 ------- 1 0.0 2.0 20 21
- 0.2 0 2 cbr 500 ------- 1 0.0 2.0 20 21
r 0.2002 0 2 cbr 500 ------- 1 0.0 2.0 17 17
+ 0.205 1 2 cbr 1000 ------- 2 1.0 2.0 1 22
+ 0.205 0 2 cbr 500 ------- 1 0.0 2.0 21 23
- 0.205 0 2 cbr 500 ------- 1 0.0 2.0 21 23
r 0.2052 0 2 cbr 500 ------- 1 0.0 2.0 18 18
- 0.208 1 2 cbr 1000 ------- 2 1.0 2.0 1 22
+ 0.21 1 2 cbr 1000 ------- 2 1.0 2.0 2 24
+ 0.21 0 2 cbr 500 ------- 1 0.0 2.0 22 25
- 0.21 0 2 cbr 500 ------- 1 0.0 2.0 22 25
r 0.2102 0 2 cbr 500 ------- 1 0.0 2.0 19 19
+ 0.215 1 2 cbr 1000 ------- 2 1.0 2.0 3 26
+ 0.215 0 2 cbr 500 ------- 1 0.0 2.0 23 27
- 0.215 0 2 cbr 500 ------- 1 0.0 2.0 23 27
r 0.2152 0 2 cbr 500 ------- 1 0.0 2.0 20 21
- 0.216 1 2 cbr 1000 ------- 2 1.0 2.0 2 24
+ 0.22 1 2 cbr 1000 ------- 2 1.0 2.0 4 28
+ 0.22 0 2 cbr 500 ------- 1 0.0 2.0 24 29
- 0.22 0 2 cbr 500 ------- 1 0.0 2.0 24 29
r 0.2202 0 2 cbr 500 ------- 1 0.0 2.0 21 23
r 0.223 1 2 cbr 1000 ------- 2 1.0 2.0 0 20
- 0.224 1 2 cbr 1000 ------- 2 1.0 2.0 3 26
+ 0.225 1 2 cbr 1000 ------- 2 1.0 2.0 5 30
+ 0.225 0 2 cbr 500 ------- 1 0.0 2.0 25 31
- 0.225 0 2 cbr 500 ------- 1 0.0 2.0 25 31
r 0.2252 0 2 cbr 500 ------- 1 0.0 2.0 22 25
+ 0.23 1 2 cbr 1000 ------- 2 1.0 2.0 6 32
+ 0.23 0 2 cbr 500 ------- 1 0.0 2.0 26 33
- 0.23 0 2 cbr 500 ------- 1 0.0 2.0 26 33
r 0.2302 0 2 cbr 500 ------- 1 0.0 2.0 23 27
r 0.231 1 2 cbr 1000 ------- 2 1.0 2.0 1 22
- 0.232 1 2 cbr 1000 ------- 2 1.0 2.0 4 28
+ 0.235 1 2 cbr 1000 ------- 2 1.0 2.0 7 34
+ 0.235 0 2 cbr 500 ------- 1 0.0 2.0 27 35
- 0.235 0 2 cbr 500 ------- 1 0.0 2.0 27 35
r 0.2352 0 2 cbr 500 ------- 1 0.0 2.0 24 29
r 0.239 1 2 cbr 1000 ------- 2 1.0 2.0 2 24
- 0.24 1 2 cbr 1000 ------- 2 1.0 2.0 5 30
+ 0.24 1 2 cbr 1000 ------- 2 1.0 2.0 8 36
+ 0.24 0 2 cbr 500 ------- 1 0.0 2.0 28 37
- 0.24 0 2 cbr 500 ------- 1 0.0 2.0 28 37
r 0.2402 0 2 cbr 500 ------- 1 0.0 2.0 25 31
+ 0.245 1 2 cbr 1000 ------- 2 1.0 2.0 9 38
+ 0.245 0 2 cbr 500 ------- 1 0.0 2.0 29 39
- 0.245 0 2 cbr 500 ------- 1 0.0 2.0 29 39
r 0.2452 0 2 cbr 500 ------- 1 0.0 2.0 26 33
r 0.247 1 2 cbr 1000 ------- 2 1.0 2.0 3 26
- 0.248 1 2 cbr 1000 ------- 2 1.0 2.0 6 32
+ 0.25 1 2 cbr 1000 ------- 2 1.0 2.0 10 40
+ 0.25 0 2 cbr 500 ------- 1 0.0 2.0 30 41
- 0.25 0 2 cbr 500 ------- 1 0.0 2.0 30 41
r 0.2502 0 2 cbr 500 ------- 1 0.0 2.0 27 35
r 0.255 1 2 cbr 1000 ------- 2 1.0 2.0 4 28
+ 0.255 1 2 cbr 1000 ------- 2 1.0 2.0 11 42
+ 0.255 0 2 cbr 500 ------- 1 0.0 2.0 31 43
- 0.255 0 2 cbr 500 ------- 1 0.0 2.0 31 43
r 0.2552 0 2 cbr 500 ------- 1 0.0 2.0 28 37
- 0.256 1 2 cbr 1000 ------- 2 1.0 2.0 7 34
+ 0.26 1 2 cbr 1000 ------- 2 1.0 2.0 12 44
+ 0.26 0 2 cbr 500 ------- 1 0.0 2.0 32 45
- 0.26 0 2 cbr 500 ------- 1 0.0 2.0 32 45
r 0.2602 0 2 cbr 500 ------- 1 0.0 2.0 29 39
r 0.263 1 2 cbr 1000 ------- 2 1.0 2.0 5 30
- 0.264 1 2 cbr 1000 ------- 2 1.0 2.0 8 36
+ 0.265 1 2 cbr 1000 ------- 2 1.0 2.0 13 46
+ 0.265 0 2 cbr 500 ------- 1 0.0 2.0 33 47
- 0.265 0 2 cbr 500 ------- 1 0.0 2.0 33 47
r 0.2652 0 2 cbr 500 ------- 1 0.0 2.0 30 41
+ 0.27 1 2 cbr 1000 ------- 2 1.0 2.0 14 48
+ 0.27 0 2 cbr 500 ------- 1 0.0 2.0 34 49
- 0.27 0 2 cbr 500 ------- 1 0.0 2.0 34 49
r 0.2702 0 2 cbr 500 ------- 1 0.0 2.0 31 43
r 0.271 1 2 cbr 1000 ------- 2 1.0 2.0 6 32
- 0.272 1 2 cbr 1000 ------- 2 1.0 2.0 9 38
+ 0.275 1 2 cbr 1000 ------- 2 1.0 2.0 15 50
+ 0.275 0 2 cbr 500 ------- 1 0.0 2.0 35 51
- 0.275 0 2 cbr 500 ------- 1 0.0 2.0 35 51
r 0.2752 0 2 cbr 500 ------- 1 0.0 2.0 32 45
r 0.279 1 2 cbr 1000 ------- 2 1.0 2.0 7 34
- 0.28 1 2 cbr 1000 ------- 2 1.0 2.0 10 40
+ 0.28 1 2 cbr 1000 ------- 2 1.0 2.0 16 52
+ 0.28 0 2 cbr 500 ------- 1 0.0 2.0 36 53
- 0.28 0 2 cbr 500 ------- 1 0.0 2.0 36 53
r 0.2802 0 2 cbr 500 ------- 1 0.0 2.0 33 47
+ 0.285 1 2 cbr 1000 ------- 2 1.0 2.0 17 54
+ 0.285 0 2 cbr 500 ------- 1 0.0 2.0 37 55
- 0.285 0 2 cbr 500 ------- 1 0.0 2.0 37 55
r 0.2852 0 2 cbr 500 ------- 1 0.0 2.0 34 49
r 0.287 1 2 cbr 1000 ------- 2 1.0 2.0 8 36
- 0.288 1 2 cbr 1000 ------- 2 1.0 2.0 11 42
+ 0.29 1 2 cbr 1000 ------- 2 1.0 2.0 18 56
+ 0.29 0 2 cbr 500 ------- 1 0.0 2.0 38 57
- 0.29 0 2 cbr 500 ------- 1 0.0 2.0 38 57
r 0.2902 0 2 cbr 500 ------- 1 0.0 2.0 35 51
r 0.295 1 2 cbr 1000 ------- 2 1.0 2.0 9 38
+ 0.295 1 2 cbr 1000 ------- 2 1.0 2.0 19 58
+ 0.295 0 2 cbr 500 ------- 1 0.0 2.0 39 59
- 0.295 0 2 cbr 500 ------- 1 0.0 2.0 39 59
r 0.2952 0 2 cbr 500 ------- 1 0.0 2.0 36 53
- 0.296 1 2 cbr 1000 ------- 2 1.0 2.0 12 44
+ 0.3 1 2 cbr 1000 ------- 2 1.0 2.0 20 60
+ 0.3 0 2 cbr 500 ------- 1 0.0 2.0 40 61
- 0.3 0 2 cbr 500 ------- 1 0.0 2.0 40 61
r 0.3002 0 2 cbr 500 ------- 1 0.0 2.0 37 55
r 0.303 1 2 cbr 1000 ------- 2 1.0 2.0 10 40
- 0.304 1 2 cbr 1000 ------- 2 1.0 2.0 13 46
+ 0.305 1 2 cbr 1000 ------- 2 1.0 2.0 21 62
+ 0.305 0 2 cbr 500 ------- 1 0.0 2.0 41 63
- 0.305 0 2 cbr 500 ------- 1 0.0 2.0 41 63
r 0.3052 0 2 cbr 500 ------- 1 0.0 2.0 38 57
+ 0.31 1 2 cbr 1000 ------- 2 1.0 2.0 22 64
+ 0.31 0 2 cbr 500 ------- 1 0.0 2.0 42 65
- 0.31 0 2 cbr 500 ------- 1 0.0 2.0 42 65
r 0.3102 0 2 cbr 500 ------- 1 0.0 2.0 39 59
r 0.311 1 2 cbr 1000 ------- 2 1.0 2.0 11 42
- 0.312 1 2 cbr 1000 ------- 2 1.0 2.0 14 48
+ 0.315 1 2 cbr 1000 ------- 2 1.0 2.0 23 66
+ 0.315 0 2 cbr 500 ------- 1 0.0 2.0 43 67
- 0.315 0 2 cbr 500 ------- 1 0.0 2.0 43 67
r 0.3152 0 2 cbr 500 ------- 1 0.0 2.0 40 61
r 0.319 1 2 cbr 1000 ------- 2 1.0 2.0 12 44
- 0.32 1 2 cbr 1000 ------- 2 1.0 2.0 15 50
+ 0.32 1 2 cbr 1000 ------- 2 1.0 2.0 24 68
+ 0.32 0 2 cbr 500 ------- 1 0.0 2.0 44 69
- 0.32 0 2 cbr 500 ------- 1 0.0 2.0 44 69
r 0.3202 0 2 cbr 500 ------- 1 0.0 2.0 41 63
+ 0.325 1 2 cbr 1000 ------- 2 1.0 2.0 25 70
+ 0.325 0 2 cbr 500 ------- 1 0.0 2.0 45 71
- 0.325 0 2 cbr 500 ------- 1 0.0 2.0 45 71
r 0.3252 0 2 cbr 500 ------- 1 0.0 2.0 42 65
r 0.327 1 2 cbr 1000 ------- 2 1.0 2.0 13 46
- 0.328 1 2 cbr 1000 ------- 2 1.0 2.0 16 52
+ 0.33 1 2 cbr 1000 ------- 2 1.0 2.0 26 72
+ 0.33 0 2 cbr 500 ------- 1 0.0 2.0 46 73
- 0.33 0 2 cbr 500 ------- 1 0.0 2.0 46 73
r 0.3302 0 2 cbr 500 ------- 1 0.0 2.0 43 67
r 0.335 1 2 cbr 1000 ------- 2 1.0 2.0 14 48
+ 0.335 1 2 cbr 1000 ------- 2 1.0 2.0 27 74
+ 0.335 0 2 cbr 500 ------- 1 0.0 2.0 47 75
- 0.335 0 2 cbr 500 ------- 1 0.0 2.0 47 75
r 0.3352 0 2 cbr 500 ------- 1 0.0 2.0 44 69
- 0.336 1 2 cbr 1000 ------- 2 1.0 2.0 17 54
+ 0.34 1 2 cbr 1000 ------- 2 1.0 2.0 28 76
+ 0.34 0 2 cbr 500 ------- 1 0.0 2.0 48 77
- 0.34 0 2 cbr 500 ------- 1 0.0 2.0 48 77
r 0.3402 0 2 cbr 500 ------- 1 0.0 2.0 45 71
r 0.343 1 2 cbr 1000 ------- 2 1.0 2.0 15 50
- 0.344 1 2 cbr 1000 ------- 2 1.0 2.0 18 56
+ 0.345 1 2 cbr 1000 ------- 2 1.0 2.0 29 78
+ 0.345 0 2 cbr 500 ------- 1 0.0 2.0 49 79
- 0.345 0 2 cbr 500 ------- 1 0.0 2.0 49 79
r 0.3452 0 2 cbr 500 ------- 1 0.0 2.0 46 73
+ 0.35 1 2 cbr 1000 ------- 2 1.0 2.0 30 80
+ 0.35 0 2 cbr 500 ------- 1 0.0 2.0 50 81
- 0.35 0 2 cbr 500 ------- 1 0.0 2.0 50 81
r 0.3502 0 2 cbr 500 ------- 1 0.0 2.0 47 75
r 0.351 1 2 cbr 1000 ------- 2 1.0 2.0 16 52
- 0.352 1 2 cbr 1000 ------- 2 1.0 2.0 19 58
+ 0.355 1 2 cbr 1000 ------- 2 1.0 2.0 31 82
+ 0.355 0 2 cbr 500 ------- 1 0.0 2.0 51 83
- 0.355 0 2 cbr 500 ------- 1 0.0 2.0 51 83
r 0.3552 0 2 cbr 500 ------- 1 0.0 2.0 48 77
r 0.359 1 2 cbr 1000 ------- 2 1.0 2.0 17 54
- 0.36 1 2 cbr 1000 ------- 2 1.0 2.0 20 60
+ 0.36 1 2 cbr 1000 ------- 2 1.0 2.0 32 84
+ 0.36 0 2 cbr 500 ------- 1 0.0 2.0 52 85
- 0.36 0 2 cbr 500 ------- 1 0.0 2.0 52 85
r 0.3602 0 2 cbr 500 ------- 1 0.0 2.0 49 79
+ 0.365 1 2 cbr 1000 ------- 2 1.0 2.0 33 86
+ 0.365 0 2 cbr 500 ------- 1 0.0 2.0 53 87
- 0.365 0 2 cbr 500 ------- 1 0.0 2.0 53 87
r 0.3652 0 2 cbr 500 ------- 1 0.0 2.0 50 81
r 0.367 1 2 cbr 1000 ------- 2 1.0 2.0 18 56
- 0.368 1 2 cbr 1000 ------- 2 1.0 2.0 21 62
+ 0.37 1 2 cbr 1000 ------- 2 1.0 2.0 34 88
+ 0.37 0 2 cbr 500 ------- 1 0.0 2.0 54 89
- 0.37 0 2 cbr 500 ------- 1 0.0 2.0 54 89
r 0.3702 0 2 cbr 500 ------- 1 0.0 2.0 51 83
r 0.375 1 2 cbr 1000 ------- 2 1.0 2.0 19 58
+ 0.375 1 2 cbr 1000 ------- 2 1.0 2.0 35 90
+ 0.375 0 2 cbr 500 ------- 1 0.0 2.0 55 91
- 0.375 0 2 cbr 500 ------- 1 0.0 2.0 55 91
r 0.3752 0 2 cbr 500 ------- 1 0.0 2.0 52 85
- 0.376 1 2 cbr 1000 ------- 2 1.0 2.0 22 64
+ 0.38 1 2 cbr 1000 ------- 2 1.0 2.0 36 92
+ 0.38 0 2 cbr 500 ------- 1 0.0 2.0 56 93
- 0.38 0 2 cbr 500 ------- 1 0.0 2.0 56 93
r 0.3802 0 2 cbr 500 ------- 1 0.0 2.0 53 87
r 0.383 1 2 cbr 1000 ------- 2 1.0 2.0 20 60
- 0.384 1 2 cbr 1000 ------- 2 1.0 2.0 23 66
+ 0.385 1 2 cbr 1000 ------- 2 1.0 2.0 37 94
+ 0.385 0 2 cbr 500 ------- 1 0.0 2.0 57 95
- 0.385 0 2 cbr 500 ------- 1 0.0 2.0 57 95
r 0.3852 0 2 cbr 500 ------- 1 0.0 2.0 54 89
+ 0.39 1 2 cbr 1000 ------- 2 1.0 2.0 38 96
+ 0.39 0 2 cbr 500 ------- 1 0.0 2.0 58 97
- 0.39 0 2 cbr 500 ------- 1 0.0 2.0 58 97
r 0.3902 0 2 cbr 500 ------- 1 0.0 2.0 55 91
r 0.391 1 2 cbr 1000 ------- 2 1.0 2.0 21 62
- 0.392 1 2 cbr 1000 ------- 2 1.0 2.0 24 68
+ 0.395 1 2 cbr 1000 ------- 2 1.0 2.0 39 98
+ 0.395 0 2 cbr 500 ------- 1 0.0 2.0 59 99
- 0.395 0 2 cbr 500 ------- 1 0.0 2.0 59 99
r 0.3952 0 2 cbr 500 ------- 1 0.0 2.0 56 93
r 0.399 1 2 cbr 1000 ------- 2 1.0 2.0 22 64
- 0.4 1 2 cbr 1000 ------- 2 1.0 2.0 25 70
+ 0.4 1 2 cbr 1000 ------- 2 1.0 2.0 40 100
+ 0.4 0 2 cbr 500 ------- 1 0.0 2.0 60 101
- 0.4 0 2 cbr 500 ------- 1 0.0 2.0 60 101
r 0.4002 0 2 cbr 500 ------- 1 0.0 2.0 57 95
+ 0.405 1 2 cbr 1000 ------- 2 1.0 2.0 41 102
+ 0.405 0 2 cbr 500 ------- 1 0.0 2.0 61 103
- 0.405 0 2 cbr 500 ------- 1 0.0 2.0 61 103
r 0.4052 0 2 cbr 500 ------- 1 0.0 2.0 58 97
r 0.407 1 2 cbr 1000 ------- 2 1.0 2.0 23 66
- 0.408 1 2 cbr 1000 ------- 2 1.0 2.0 26 72
+ 0.41 1 2 cbr 1000 ------- 2 1.0 2.0 42 104
+ 0.41 0 2 cbr 500 ------- 1 0.0 2.0 62 105
- 0.41 0 2 cbr 500 ------- 1 0.0 2.0 62 105
r 0.4102 0 2 cbr 500 ------- 1 0.0 2.0 59 99
r 0.415 1 2 cbr 1000 ------- 2 1.0 2.0 24 68
+ 0.415 1 2 cbr 1000 ------- 2 1.0 2.0 43 106
+ 0.415 0 2 cbr 500 ------- 1 0.0 2.0 63 107
- 0.415 0 2 cbr 500 ------- 1 0.0 2.0 63 107
r 0.4152 0 2 cbr 500 ------- 1 0.0 2.0 60 101
- 0.416 1 2 cbr 1000 ------- 2 1.0 2.0 27 74
+ 0.42 1 2 cbr 1000 ------- 2 1.0 2.0 44 108
+ 0.42 0 2 cbr 500 ------- 1 0.0 2.0 64 109
- 0.42 0 2 cbr 500 ------- 1 0.0 2.0 64 109
r 0.4202 0 2 cbr 500 ------- 1 0.0 2.0 61 103
r 0.423 1 2 cbr 1000 ------- 2 1.0 2.0 25 70
- 0.424 1 2 cbr 1000 ------- 2 1.0 2.0 28 76
+ 0.425 1 2 cbr 1000 ------- 2 1.0 2.0 45 110
+ 0.425 0 2 cbr 500 ------- 1 0.0 2.0 65 111
- 0.425 0 2 cbr 500 ------- 1 0.0 2.0 65 111
r 0.4252 0 2 cbr 500 ------- 1 0.0 2.0 62 105
+ 0.43 1 2 cbr 1000 ------- 2 1.0 2.0 46 112
+ 0.43 0 2 cbr 500 ------- 1 0.0 2.0 66 113
- 0.43 0 2 cbr 500 ------- 1 0.0 2.0 66 113
r 0.4302 0 2 cbr 500 ------- 1 0.0 2.0 63 107
r 0.431 1 2 cbr 1000 ------- 2 1.0 2.0 26 72
- 0.432 1 2 cbr 1000 ------- 2 1.0 2.0 29 78
+ 0.435 1 2 cbr 1000 ------- 2 1.0 2.0 47 114
+ 0.435 0 2 cbr 500 ------- 1 0.0 2.0 67 115
- 0.435 0 2 cbr 500 ------- 1 0.0 2.0 67 115
r 0.4352 0 2 cbr 500 ------- 1 0.0 2.0 64 109
r 0.439 1 2 cbr 1000 ------- 2 1.0 2.0 27 74
- 0.44 1 2 cbr 1000 ------- 2 1.0 2.0 30 80
+ 0.44 1 2 cbr 1000 ------- 2 1.0 2.0 48 116
+ 0.44 0 2 cbr 500 ------- 1 0.0 2.0 68 117
- 0.44 0 2 cbr 500 ------- 1 0.0 2.0 68 117
r 0.4402 0 2 cbr 500 ------- 1 0.0 2.0 65 111
+ 0.445 1 2 cbr 1000 ------- 2 1.0 2.0 49 118
+ 0.445 0 2 cbr 500 ------- 1 0.0 2.0 69 119
- 0.445 0 2 cbr 500 ------- 1 0.0 2.0 69 119
r 0.4452 0 2 cbr 500 ------- 1 0.0 2.0 66 113
r 0.447 1 2 cbr 1000 ------- 2 1.0 2.0 28 76
- 0.448 1 2 cbr 1000 ------- 2 1.0 2.0 31 82
+ 0.45 1 2 cbr 1000 ------- 2 1.0 2.0 50 120
+ 0.45 0 2 cbr 500 ------- 1 0.0 2.0 70 121
- 0.45 0 2 cbr 500 ------- 1 0.0 2.0 70 121
r 0.4502 0 2 cbr 500 ------- 1 0.0 2.0 67 115
r 0.455 1 2 cbr 1000 ------- 2 1.0 2.0 29 78
+ 0.455 1 2 cbr 1000 ------- 2 1.0 2.0 51 122
+ 0.455 0 2 cbr 500 ------- 1 0.0 2.0 71 123
- 0.455 0 2 cbr 500 ------- 1 0.0 2.0 71 123
r 0.4552 0 2 cbr 500 ------- 1 0.0 2.0 68 117
- 0.456 1 2 cbr 1000 ------- 2 1.0 2.0 32 84
+ 0.46 1 2 cbr 1000 ------- 2 1.0 2.0 52 124
+ 0.46 0 2 cbr 500 ------- 1 0.0 2.0 72 125
- 0.46 0 2 cbr 500 ------- 1 0.0 2.0 72 125
r 0.4602 0 2 cbr 500 ------- 1 0.0 2.0 69 119
r 0.463 1 2 cbr 1000 ------- 2 1.0 2.0 30 80
- 0.464 1 2 cbr 1000 ------- 2 1.0 2.0 33 86
+ 0.465 1 2 cbr 1000 ------- 2 1.0 2.0 53 126
+ 0.465 0 2 cbr 500 ------- 1 0.0 2.0 73 127
- 0.465 0 2 cbr 500 ------- 1 0.0 2.0 73 127
r 0.4652 0 2 cbr 500 ------- 1 0.0 2.0 70 121
+ 0.47 1 2 cbr 1000 ------- 2 1.0 2.0 54 128
+ 0.47 0 2 cbr 500 ------- 1 0.0 2.0 74 129
- 0.47 0 2 cbr 500 ------- 1 0.0 2.0 74 129
r 0.4702 0 2 cbr 500 ------- 1 0.0 2.0 71 123
r 0.471 1 2 cbr 1000 ------- 2 1.0 2.0 31 82
- 0.472 1 2 cbr 1000 ------- 2 1.0 2.0 34 88
+ 0.475 1 2 cbr 1000 ------- 2 1.0 2.0 55 130
+ 0.475 0 2 cbr 500 ------- 1 0.0 2.0 75 131
- 0.475 0 2 cbr 500 ------- 1 0.0 2.0 75 131
r 0.4752 0 2 cbr 500 ------- 1 0.0 2.0 72 125
r 0.479 1 2 cbr 1000 ------- 2 1.0 2.0 32 84
- 0.48 1 2 cbr 1000 ------- 2 1.0 2.0 35 90
+ 0.48 1 2 cbr 1000 ------- 2 1.0 2.0 56 132
+ 0.48 0 2 cbr 500 ------- 1 0.0 2.0 76 133
- 0.48 0 2 cbr 500 ------- 1 0.0 2.0 76 133
r 0.4802 0 2 cbr 500 ------- 1 0.0 2.0 73 127
+ 0.485 1 2 cbr 1000 ------- 2 1.0 2.0 57 134
+ 0.485 0 2 cbr 500 ------- 1 0.0 2.0 77 135
- 0.485 0 2 cbr 500 ------- 1 0.0 2.0 77 135
r 0.4852 0 2 cbr 500 ------- 1 0.0 2.0 74 129
r 0.487 1 2 cbr 1000 ------- 2 1.0 2.0 33 86
- 0.488 1 2 cbr 1000 ------- 2 1.0 2.0 36 92
+ 0.49 1 2 cbr 1000 ------- 2 1.0 2.0 58 136
+ 0.49 0 2 cbr 500 ------- 1 0.0 2.0 78 137
- 0.49 0 2 cbr 500 ------- 1 0.0 2.0 78 137
r 0.4902 0 2 cbr 500 ------- 1 0.0 2.0 75 131
r 0.495 1 2 cbr 1000 ------- 2 1.0 2.0 34 88
+ 0.495 1 2 cbr 1000 ------- 2 1.0 2.0 59 138
+ 0.495 0 2 cbr 500 ------- 1 0.0 2.0 79 139
- 0.495 0 2 cbr 500 ------- 1 0.0 2.0 79 139
r 0.4952 0 2 cbr 500 ------- 1 0.0 2.0 76 133
- 0.496 1 2 cbr 1000 ------- 2 1.0 2.0 37 94
+ 0.5 1 2 cbr 1000 ------- 2 1.0 2.0 60 140
+ 0.5 0 2 cbr 500 ------- 1 0.0 2.0 80 141
- 0.5 0 2 cbr 500 ------- 1 0.0 2.0 80 141
r 0.5002 0 2 cbr 500 ------- 1 0.0 2.0 77 135
r 0.503 1 2 cbr 1000 ------- 2 1.0 2.0 35 90
- 0.504 1 2 cbr 1000 ------- 2 1.0 2.0 38 96
+ 0.505 1 2 cbr 1000 ------- 2 1.0 2.0 61 142
+ 0.505 0 2 cbr 500 ------- 1 0.0 2.0 81 143
- 0.505 0 2 cbr 500 ------- 1 0.0 2.0 81 143
r 0.5052 0 2 cbr 500 ------- 1 0.0 2.0 78 137
+ 0.51 1 2 cbr 1000 ------- 2 1.0 2.0 62 144
+ 0.51 0 2 cbr 500 ------- 1 0.0 2.0 82 145
- 0.51 0 2 cbr 500 ------- 1 0.0 2.0 82 145
r 0.5102 0 2 cbr 500 ------- 1 0.0 2.0 79 139
r 0.511 1 2 cbr 1000 ------- 2 1.0 2.0 36 92
- 0.512 1 2 cbr 1000 ------- 2 1.0 2.0 39 98
+ 0.515 1 2 cbr 1000 ------- 2 1.0 2.0 63 146
+ 0.515 0 2 cbr 500 ------- 1 0.0 2.0 83 147
- 0.515 0 2 cbr 500 ------- 1 0.0 2.0 83 147
r 0.5152 0 2 cbr 500 ------- 1 0.0 2.0 80 141
r 0.519 1 2 cbr 1000 ------- 2 1.0 2.0 37 94
- 0.52 1 2 cbr 1000 ------- 2 1.0 2.0 40 100
+ 0.52 1 2 cbr 1000 ------- 2 1.0 2.0 64 148
+ 0.52 0 2 cbr 500 ------- 1 0.0 2.0 84 149
- 0.52 0 2 cbr 500 ------- 1 0.0 2.0 84 149
r 0.5202 0 2 cbr 500 ------- 1 0.0 2.0 81 143
+ 0.525 1 2 cbr 1000 ------- 2 1.0 2.0 65 150
+ 0.525 0 2 cbr 500 ------- 1 0.0 2.0 85 151
- 0.525 0 2 cbr 500 ------- 1 0.0 2.0 85 151
r 0.5252 0 2 cbr 500 ------- 1 0.0 2.0 82 145
r 0.527 1 2 cbr 1000 ------- 2 1.0 2.0 38 96
- 0.528 1 2 cbr 1000 ------- 2 1.0 2.0 41 102
+ 0.53 1 2 cbr 1000 ------- 2 1.0 2.0 66 152
+ 0.53 0 2 cbr 500 ------- 1 0.0 2.0 86 153
- 0.53 0 2 cbr 500 ------- 1 0.0 2.0 86 153
r 0.5302 0 2 cbr 500 ------- 1 0.0 2.0 83 147
r 0.535 1 2 cbr 1000 ------- 2 1.0 2.0 39 98
+ 0.535 1 2 cbr 1000 ------- 2 1.0 2.0 67 154
+ 0.535 0 2 cbr 500 ------- 1 0.0 2.0 87 155
- 0.535 0 2 cbr 500 ------- 1 0.0 2.0 87 155
r 0.5352 0 2 cbr 500 ------- 1 0.0 2.0 84 149
- 0.536 1 2 cbr 1000 ------- 2 1.0 2.0 42 104
+ 0.54 1 2 cbr 1000 ------- 2 1.0 2.0 68 156
+ 0.54 0 2 cbr 500 ------- 1 0.0 2.0 88 157
- 0.54 0 2 cbr 500 ------- 1 0.0 2.0 88 157
r 0.5402 0 2 cbr 500 ------- 1 0.0 2.0 85 151
r 0.543 1 2 cbr 1000 ------- 2 1.0 2.0 40 100
- 0.544 1 2 cbr 1000 ------- 2 1.0 2.0 43 106
+ 0.545 1 2 cbr 1000 ------- 2 1.0 2.0 69 158
+ 0.545 0 2 cbr 500 ------- 1 0.0 2.0 89 159
- 0.545 0 2 cbr 500 ------- 1 0.0 2.0 89 159
r 0.5452 0 2 cbr 500 ------- 1 0.0 2.0 86 153
+ 0.55 1 2 cbr 1000 ------- 2 1.0 2.0 70 160
+ 0.55 0 2 cbr 500 ------- 1 0.0 2.0 90 161
- 0.55 0 2 cbr 500 ------- 1 0.0 2.0 90 161
r 0.5502 0 2 cbr 500 ------- 1 0.0 2.0 87 155
r 0.551 1 2 cbr 1000 ------- 2 1.0 2.0 41 102
- 0.552 1 2 cbr 1000 ------- 2 1.0 2.0 44 108
+ 0.555 1 2 cbr 1000 ------- 2 1.0 2.0 71 162
+ 0.555 0 2 cbr 500 ------- 1 0.0 2.0 91 163
- 0.555 0 2 cbr 500 ------- 1 0.0 2.0 91 163
r 0.5552 0 2 cbr 500 ------- 1 0.0 2.0 88 157
r 0.559 1 2 cbr 1000 ------- 2 1.0 2.0 42 104
- 0.56 1 2 cbr 1000 ------- 2 1.0 2.0 45 110
+ 0.56 1 2 cbr 1000 ------- 2 1.0 2.0 72 164
+ 0.56 0 2 cbr 500 ------- 1 0.0 2.0 92 165
- 0.56 0 2 cbr 500 ------- 1 0.0 2.0 92 165
r 0.5602 0 2 cbr 500 ------- 1 0.0 2.0 89 159
+ 0.565 1 2 cbr 1000 ------- 2 1.0 2.0 73 166
+ 0.565 0 2 cbr 500 ------- 1 0.0 2.0 93 167
- 0.565 0 2 cbr 500 ------- 1 0.0 2.0 93 167
r 0.5652 0 2 cbr 500 ------- 1 0.0 2.0 90 161
r 0.567 1 2 cbr 1000 ------- 2 1.0 2.0 43 106
- 0.568 1 2 cbr 1000 ------- 2 1.0 2.0 46 112
+ 0.57 1 2 cbr 1000 ------- 2 1.0 2.0 74 168
+ 0.57 0 2 cbr 500 ------- 1 0.0 2.0 94 169
- 0.57 0 2 cbr 500 ------- 1 0.0 2.0 94 169
r 0.5702 0 2 cbr 500 ------- 1 0.0 2.0 91 163
r 0.575 1 2 cbr 1000 ------- 2 1.0 2.0 44 108
+ 0.575 1 2 cbr 1000 ------- 2 1.0 2.0 75 170
+ 0.575 0 2 cbr 500 ------- 1 0.0 2.0 95 171
- 0.575 0 2 cbr 500 ------- 1 0.0 2.0 95 171
r 0.5752 0 2 cbr 500 ------- 1 0.0 2.0 92 165
- 0.576 1 2 cbr 1000 ------- 2 1.0 2.0 47 114
+ 0.58 1 2 cbr 1000 ------- 2 1.0 2.0 76 172
+ 0.58 0 2 cbr 500 ------- 1 0.0 2.0 96 173
- 0.58 0 2 cbr 500 ------- 1 0.0 2.0 96 173
r 0.5802 0 2 cbr 500 ------- 1 0.0 2.0 93 167
r 0.583 1 2 cbr 1000 ------- 2 1.0 2.0 45 110
- 0.584 1 2 cbr 1000 ------- 2 1.0 2.0 48 116
+ 0.585 1 2 cbr 1000 ------- 2 1.0 2.0 77 174
+ 0.585 0 2 cbr 500 ------- 1 0.0 2.0 97 175
- 0.585 0 2 cbr 500 ------- 1 0.0 2.0 97 175
r 0.5852 0 2 cbr 500 ------- 1 0.0 2.0 94 169
+ 0.59 1 2 cbr 1000 ------- 2 1.0 2.0 78 176
+ 0.59 0 2 cbr 500 ------- 1 0.0 2.0 98 177
- 0.59 0 2 cbr 500 ------- 1 0.0 2.0 98 177
r 0.5902 0 2 cbr 500 ------- 1 0.0 2.0 95 171
r 0.591 1 2 cbr 1000 ------- 2 1.0 2.0 46 112
- 0.592 1 2 cbr 1000 ------- 2 1.0 2.0 49 118
+ 0.595 1 2 cbr 1000 ------- 2 1.0 2.0 79 178
+ 0.595 0 2 cbr 500 ------- 1 0.0 2.0 99 179
- 0.595 0 2 cbr 500 ------- 1 0.0 2.0 99 179
r 0.5952 0 2 cbr 500 ------- 1 0.0 2.0 96 173
r 0.599 1 2 cbr 1000 ------- 2 1.0 2.0 47 114
- 0.6 1 2 cbr 1000 ------- 2 1.0 2.0 50 120
+ 0.6 1 2 cbr 1000 ------- 2 1.0 2.0 80 180
+ 0.6 0 2 cbr 500 ------- 1 0.0 2.0 100 181
- 0.6 0 2 cbr 500 ------- 1 0.0 2.0 100 181
r 0.6002 0 2 cbr 500 ------- 1 0.0 2.0 97 175
+ 0.605 1 2 cbr 1000 ------- 2 1.0 2.0 81 182
+ 0.605 0 2 cbr 500 ------- 1 0.0 2.0 101 183
- 0.605 0 2 cbr 500 ------- 1 0.0 2.0 101 183
r 0.6052 0 2 cbr 500 ------- 1 0.0 2.0 98 177
r 0.607 1 2 cbr 1000 ------- 2 1.0 2.0 48 116
- 0.608 1 2 cbr 1000 ------- 2 1.0 2.0 51 122
+ 0.61 1 2 cbr 1000 ------- 2 1.0 2.0 82 184
+ 0.61 0 2 cbr 500 ------- 1 0.0 2.0 102 185
- 0.61 0 2 cbr 500 ------- 1 0.0 2.0 102 185
r 0.6102 0 2 cbr 500 ------- 1 0.0 2.0 99 179
r 0.615 1 2 cbr 1000 ------- 2 1.0 2.0 49 118
+ 0.615 1 2 cbr 1000 ------- 2 1.0 2.0 83 186
+ 0.615 0 2 cbr 500 ------- 1 0.0 2.0 103 187
- 0.615 0 2 cbr 500 ------- 1 0.0 2.0 103 187
r 0.6152 0 2 cbr 500 ------- 1 0.0 2.0 100 181
- 0.616 1 2 cbr 1000 ------- 2 1.0 2.0 52 124
+ 0.62 1 2 cbr 1000 ------- 2 1.0 2.0 84 188
+ 0.62 0 2 cbr 500 ------- 1 0.0 2.0 104 189
- 0.62 0 2 cbr 500 ------- 1 0.0 2.0 104 189
r 0.6202 0 2 cbr 500 ------- 1 0.0 2.0 101 183
r 0.623 1 2 cbr 1000 ------- 2 1.0 2.0 50 120
- 0.624 1 2 cbr 1000 ------- 2 1.0 2.0 53 126
+ 0.625 1 2 cbr 1000 ------- 2 1.0 2.0 85 190
+ 0.625 0 2 cbr 500 ------- 1 0.0 2.0 105 191
- 0.625 0 2 cbr 500 ------- 1 0.0 2.0 105 191
r 0.6252 0 2 cbr 500 ------- 1 0.0 2.0 102 185
+ 0.63 1 2 cbr 1000 ------- 2 1.0 2.0 86 192
+ 0.63 0 2 cbr 500 ------- 1 0.0 2.0 106 193
- 0.63 0 2 cbr 500 ------- 1 0.0 2.0 106 193
r 0.6302 0 2 cbr 500 ------- 1 0.0 2.0 103 187
r 0.631 1 2 cbr 1000 ------- 2 1.0 2.0 51 122
- 0.632 1 2 cbr 1000 ------- 2 1.0 2.0 54 128
+ 0.635 1 2 cbr 1000 ------- 2 1.0 2.0 87 194
+ 0.635 0 2 cbr 500 ------- 1 0.0 2.0 107 195
- 0.635 0 2 cbr 500 ------- 1 0.0 2.0 107 195
r 0.6352 0 2 cbr 500 ------- 1 0.0 2.0 104 189
r 0.639 1 2 cbr 1000 ------- 2 1.0 2.0 52 124
- 0.64 1 2 cbr 1000 ------- 2 1.0 2.0 55 130
+ 0.64 1 2 cbr 1000 ------- 2 1.0 2.0 88 196
+ 0.64 0 2 cbr 500 ------- 1 0.0 2.0 108 197
- 0.64 0 2 cbr 500 ------- 1 0.0 2.0 108 197
r 0.6402 0 2 cbr 500 ------- 1 0.0 2.0 105 191
+ 0.645 1 2 cbr 1000 ------- 2 1.0 2.0 89 198
+ 0.645 0 2 cbr 500 ------- 1 0.0 2.0 109 199
- 0.645 0 2 cbr 500 ------- 1 0.0 2.0 109 199
r 0.6452 0 2 cbr 500 ------- 1 0.0 2.0 106 193
r 0.647 1 2 cbr 1000 ------- 2 1.0 2.0 53 126
- 0.648 1 2 cbr 1000 ------- 2 1.0 2.0 56 132
+ 0.65 1 2 cbr 1000 ------- 2 1.0 2.0 90 200
+ 0.65 0 2 cbr 500 ------- 1 0.0 2.0 110 201
- 0.65 0 2 cbr 500 ------- 1 0.0 2.0 110 201
r 0.6502 0 2 cbr 500 ------- 1 0.0 2.0 107 195
r 0.655 1 2 cbr 1000 ------- 2 1.0 2.0 54 128
+ 0.655 1 2 cbr 1000 ------- 2 1.0 2.0 91 202
+ 0.655 0 2 cbr 500 ------- 1 0.0 2.0 111 203
- 0.655 0 2 cbr 500 ------- 1 0.0 2.0 111 203
r 0.6552 0 2 cbr 500 ------- 1 0.0 2.0 108 197
- 0.656 1 2 cbr 1000 ------- 2 1.0 2.0 57 134
+ 0.66 1 2 cbr 1000 ------- 2 1.0 2.0 92 204
+ 0.66 0 2 cbr 500 ------- 1 0.0 2.0 112 205
- 0.66 0 2 cbr 500 ------- 1 0.0 2.0 112 205
r 0.6602 0 2 cbr 500 ------- 1 0.0 2.0 109 199
r 0.663 1 2 cbr 1000 ------- 2 1.0 2.0 55 130
- 0.664 1 2 cbr 1000 ------- 2 1.0 2.0 58 136
+ 0.665 1 2 cbr 1000 ------- 2 1.0 2.0 93 206
+ 0.665 0 2 cbr 500 ------- 1 0.0 2.0 113 207
- 0.665 0 2 cbr 500 ------- 1 0.0 2.0 113 207
r 0.6652 0 2 cbr 500 ------- 1 0.0 2.0 110 201
+ 0.67 1 2 cbr 1000 ------- 2 1.0 2.0 94 208
+ 0.67 0 2 cbr 500 ------- 1 0.0 2.0 114 209
- 0.67 0 2 cbr 500 ------- 1 0.0 2.0 114 209
r 0.6702 0 2 cbr 500 ------- 1 0.0 2.0 111 203
r 0.671 1 2 cbr 1000 ------- 2 1.0 2.0 56 132
- 0.672 1 2 cbr 1000 ------- 2 1.0 2.0 59 138
+ 0.675 1 2 cbr 1000 ------- 2 1.0 2.0 95 210
+ 0.675 0 2 cbr 500 ------- 1 0.0 2.0 115 211
- 0.675 0 2 cbr 500 ------- 1 0.0 2.0 115 211
r 0.6752 0 2 cbr 500 ------- 1 0.0 2.0 112 205
r 0.679 1 2 cbr 1000 ------- 2 1.0 2.0 57 134
- 0.68 1 2 cbr 1000 ------- 2 1.0 2.0 60 140
+ 0.68 1 2 cbr 1000 ------- 2 1.0 2.0 96 212
+ 0.68 0 2 cbr 500 ------- 1 0.0 2.0 116 213
- 0.68 0 2 cbr 500 ------- 1 0.0 2.0 116 213
r 0.6802 0 2 cbr 500 ------- 1 0.0 2.0 113 207
+ 0.685 1 2 cbr 1000 ------- 2 1.0 2.0 97 214
+ 0.685 0 2 cbr 500 ------- 1 0.0 2.0 117 215
- 0.685 0 2 cbr 500 ------- 1 0.0 2.0 117 215
r 0.6852 0 2 cbr 500 ------- 1 0.0 2.0 114 209
r 0.687 1 2 cbr 1000 ------- 2 1.0 2.0 58 136
- 0.688 1 2 cbr 1000 ------- 2 1.0 2.0 61 142
+ 0.69 1 2 cbr 1000 ------- 2 1.0 2.0 98 216
+ 0.69 0 2 cbr 500 ------- 1 0.0 2.0 118 217
- 0.69 0 2 cbr 500 ------- 1 0.0 2.0 118 217
r 0.6902 0 2 cbr 500 ------- 1 0.0 2.0 115 211
r 0.695 1 2 cbr 1000 ------- 2 1.0 2.0 59 138
+ 0.695 1 2 cbr 1000 ------- 2 1.0 2.0 99 218
+ 0.695 0 2 cbr 500 ------- 1 0.0 2.0 119 219
- 0.695 0 2 cbr 500 ------- 1 0.0 2.0 119 219
r 0.6952 0 2 cbr 500 ------- 1 0.0 2.0 116 213
- 0.696 1 2 cbr 1000 ------- 2 1.0 2.0 62 144
+ 0.7 1 2 cbr 1000 ------- 2 1.0 2.0 100 220
+ 0.7 0 2 cbr 500 ------- 1 0.0 2.0 120 221
- 0.7 0 2 cbr 500 ------- 1 0.0 2.0 120 221
r 0.7002 0 2 cbr 500 ------- 1 0.0 2.0 117 215
r 0.703 1 2 cbr 1000 ------- 2 1.0 2.0 60 140
- 0.704 1 2 cbr 1000 ------- 2 1.0 2.0 63 146
+ 0.705 1 2 cbr 1000 ------- 2 1.0 2.0 101 222
+ 0.705 0 2 cbr 500 ------- 1 0.0 2.0 121 223
- 0.705 0 2 cbr 500 ------- 1 0.0 2.0 121 223
r 0.7052 0 2 cbr 500 ------- 1 0.0 2.0 118 217
+ 0.71 1 2 cbr 1000 ------- 2 1.0 2.0 102 224
+ 0.71 0 2 cbr 500 ------- 1 0.0 2.0 122 225
- 0.71 0 2 cbr 500 ------- 1 0.0 2.0 122 225
r 0.7102 0 2 cbr 500 ------- 1 0.0 2.0 119 219
r 0.711 1 2 cbr 1000 ------- 2 1.0 2.0 61 142
- 0.712 1 2 cbr 1000 ------- 2 1.0 2.0 64 148
+ 0.715 1 2 cbr 1000 ------- 2 1.0 2.0 103 226
+ 0.715 0 2 cbr 500 ------- 1 0.0 2.0 123 227
- 0.715 0 2 cbr 500 ------- 1 0.0 2.0 123 227
r 0.7152 0 2 cbr 500 ------- 1 0.0 2.0 120 221
r 0.719 1 2 cbr 1000 ------- 2 1.0 2.0 62 144
- 0.72 1 2 cbr 1000 ------- 2 1.0 2.0 65 150
+ 0.72 1 2 cbr 1000 ------- 2 1.0 2.0 104 228
+ 0.72 0 2 cbr 500 ------- 1 0.0 2.0 124 229
- 0.72 0 2 cbr 500 ------- 1 0.0 2.0 124 229
r 0.7202 0 2 cbr 500 ------- 1 0.0 2.0 121 223
+ 0.725 1 2 cbr 1000 ------- 2 1.0 2.0 105 230
+ 0.725 0 2 cbr 500 ------- 1 0.0 2.0 125 231
- 0.725 0 2 cbr 500 ------- 1 0.0 2.0 125 231
r 0.7252 0 2 cbr 500 ------- 1 0.0 2.0 122 225
r 0.727 1 2 cbr 1000 ------- 2 1.0 2.0 63 146
- 0.728 1 2 cbr 1000 ------- 2 1.0 2.0 66 152
+ 0.73 1 2 cbr 1000 ------- 2 1.0 2.0 106 232
+ 0.73 0 2 cbr 500 ------- 1 0.0 2.0 126 233
- 0.73 0 2 cbr 500 ------- 1 0.0 2.0 126 233
r 0.7302 0 2 cbr 500 ------- 1 0.0 2.0 123 227
r 0.735 1 2 cbr 1000 ------- 2 1.0 2.0 64 148
+ 0.735 1 2 cbr 1000 ------- 2 1.0 2.0 107 234
+ 0.735 0 2 cbr 500 ------- 1 0.0 2.0 127 235
- 0.735 0 2 cbr 500 ------- 1 0.0 2.0 127 235
r 0.7352 0 2 cbr 500 ------- 1 0.0 2.0 124 229
- 0.736 1 2 cbr 1000 ------- 2 1.0 2.0 67 154
+ 0.74 1 2 cbr 1000 ------- 2 1.0 2.0 108 236
+ 0.74 0 2 cbr 500 ------- 1 0.0 2.0 128 237
- 0.74 0 2 cbr 500 ------- 1 0.0 2.0 128 237
r 0.7402 0 2 cbr 500 ------- 1 0.0 2.0 125 231
r 0.743 1 2 cbr 1000 ------- 2 1.0 2.0 65 150
- 0.744 1 2 cbr 1000 ------- 2 1.0 2.0 68 156
+ 0.745 1 2 cbr 1000 ------- 2 1.0 2.0 109 238
+ 0.745 0 2 cbr 500 ------- 1 0.0 2.0 129 239
- 0.745 0 2 cbr 500 ------- 1 0.0 2.0 129 239
r 0.7452 0 2 cbr 500 ------- 1 0.0 2.0 126 233
+ 0.75 1 2 cbr 1000 ------- 2 1.0 2.0 110 240
+ 0.75 0 2 cbr 500 ------- 1 0.0 2.0 130 241
- 0.75 0 2 cbr 500 ------- 1 0.0 2.0 130 241
r 0.7502 0 2 cbr 500 ------- 1 0.0 2.0 127 235
r 0.751 1 2 cbr 1000 ------- 2 1.0 2.0 66 152
- 0.752 1 2 cbr 1000 ------- 2 1.0 2.0 69 158
+ 0.755 1 2 cbr 1000 ------- 2 1.0 2.0 111 242
+ 0.755 0 2 cbr 500 ------- 1 0.0 2.0 131 243
- 0.755 0 2 cbr 500 ------- 1 0.0 2.0 131 243
r 0.7552 0 2 cbr 500 ------- 1 0.0 2.0 128 237
r 0.759 1 2 cbr 1000 ------- 2 1.0 2.0 67 154
- 0.76 1 2 cbr 1000 ------- 2 1.0 2.0 70 160
+ 0.76 1 2 cbr 1000 ------- 2 1.0 2.0 112 244
+ 0.76 0 2 cbr 500 ------- 1 0.0 2.0 132 245
- 0.76 0 2 cbr 500 ------- 1 0.0 2.0 132 245
r 0.7602 0 2 cbr 500 ------- 1 0.0 2.0 129 239
+ 0.765 1 2 cbr 1000 ------- 2 1.0 2.0 113 246
+ 0.765 0 2 cbr 500 ------- 1 0.0 2.0 133 247
- 0.765 0 2 cbr 500 ------- 1 0.0 2.0 133 247
r 0.7652 0 2 cbr 500 ------- 1 0.0 2.0 130 241
r 0.767 1 2 cbr 1000 ------- 2 1.0 2.0 68 156
- 0.768 1 2 cbr 1000 ------- 2 1.0 2.0 71 162
+ 0.77 1 2 cbr 1000 ------- 2 1.0 2.0 114 248
+ 0.77 0 2 cbr 500 ------- 1 0.0 2.0 134 249
- 0.77 0 2 cbr 500 ------- 1 0.0 2.0 134 249
r 0.7702 0 2 cbr 500 ------- 1 0.0 2.0 131 243
r 0.775 1 2 cbr 1000 ------- 2 1.0 2.0 69 158
+ 0.775 1 2 cbr 1000 ------- 2 1.0 2.0 115 250
+ 0.775 0 2 cbr 500 ------- 1 0.0 2.0 135 251
- 0.775 0 2 cbr 500 ------- 1 0.0 2.0 135 251
r 0.7752 0 2 cbr 500 ------- 1 0.0 2.0 132 245
- 0.776 1 2 cbr 1000 ------- 2 1.0 2.0 72 164
+ 0.78 1 2 cbr 1000 ------- 2 1.0 2.0 116 252
+ 0.78 0 2 cbr 500 ------- 1 0.0 2.0 136 253
- 0.78 0 2 cbr 500 ------- 1 0.0 2.0 136 253
r 0.7802 0 2 cbr 500 ------- 1 0.0 2.0 133 247
r 0.783 1 2 cbr 1000 ------- 2 1.0 2.0 70 160