n -t 0 -s 0 -S DLABEL -l "source1" -L ""
n -t 0 -s 1 -S DLABEL -l "source2" -L ""
V -t * -v 1.0a5 -a 0
A -t * -n 1 -p 0 -o 0xffffffff -c 31 -a 1
A -t * -h 1 -m 2147483647 -s 0
c -t * -i 1 -n Blue
c -t * -i 2 -n Red
n -t * -a 0 -s 0 -S UP -v circle -c black -i black
n -t * -a 1 -s 1 -S UP -v circle -c black -i black
n -t * -a 2 -s 2 -S UP -v circle -c black -i black
l -t * -s 0 -d 2 -S UP -r 20000000 -D 0.014999999999999999 -c black -o right-down
l -t * -s 1 -d 2 -S UP -r 1000000 -D 0.014999999999999999 -c black -o right-up
+ -t 0.1 -s 0 -d 2 -p cbr -e 500 -c 1 -i 0 -a 1 -x {0.0 2.0 0 ------- null}
- -t 0.1 -s 0 -d 2 -p cbr -e 500 -c 1 -i 0 -a 1 -x {0.0 2.0 0 ------- null}
h -t 0.1 -s 0 -d 2 -p cbr -e 500 -c 1 -i 0 -a 1 -x {0.0 2.0 -1 ------- null}
+ -t 0.105 -s 0 -d 2 -p cbr -e 500 -c 1 -i 1 -a 1 -x {0.0 2.0 1 ------- null}
- -t 0.105 -s 0 -d 2 -p cbr -e 500 -c 1 -i 1 -a 1 -x {0.0 2.0 1 ------- null}
h -t 0.105 -s 0 -d 2 -p cbr -e 500 -c 1 -i 1 -a 1 -x {0.0 2.0 -1 ------- null}
+ -t 0.11 -s 0 -d 2 -p cbr -e 500 -c 1 -i 2 -a 1 -x {0.0 2.0 2 ------- null}
- -t 0.11 -s 0 -d 2 -p cbr -e 500 -c 1 -i 2 -a 1 -x {0.0 2.0 2 ------- null}
h -t 0.11 -s 0 -d 2 -p cbr -e 500 -c 1 -i 2 -a 1 -x {0.0 2.0 -1 ------- null}
+ -t 0.115 -s 0 -d 2 -p cbr -e 500 -c 1 -i 3 -a 1 -x {0.0 2.0 3 ------- null}
- -t 0.115 -s 0 -d 2 -p cbr -e 500 -c 1 -i 3 -a 1 -x {0.0 2.0 3 ------- null}
h -t 0.115 -s 0 -d 2 -p cbr -e 500 -c 1 -i 3 -a 1 -x {0.0 2.0 -1 ------- null}
r -t 0.1152 -s 0 -d 2 -p cbr -e 500 -c 1 -i 0 -a 1 -x {0.0 2.0 0 ------- null}
+ -t 0.12 -s 0 -d 2 -p cbr -e 500 -c 1 -i 4 -a 1 -x {0.0 2.0 4 ------- null}
- -t 0.12 -s 0 -d 2 -p cbr -e 500 -c 1 -i 4 -a 1 -x {0.0 2.0 4 ------- null}
h -t 0.12 -s 0 -d 2 -p cbr -e 500 -c 1 -i 4 -a 1 -x {0.0 2.0 -1 ------- null}
r -t 0.1202 -s 0 -d 2 -p cbr -e 500 -c 1 -i 1 -a 1 -x {0.0 2.0 1 ------- null}
+ -t 0.125 -s 0 -d 2 -p cbr -e 500 -c 1 -i 5 -a 1 -x {0.0 2.0 5 ------- null}
- -t 0.125 -s 0 -d 2 -p cbr -e 500 -c 1 -i 5 -a 1 -x {0.0 2.0 5 ------- null}
h -t 0.125 -s 0 -d 2 -p cbr -e 500 -c 1 -i 5 -a 1 -x {0.0 2.0 -1 ------- null}
r -t 0.1252 -s 0 -d 2 -p cbr -e 500 -c 1 -i 2 -a 1 -x {0.0 2.0 2 ------- null}
+ -t 0.13 -s 0 -d 2 -p cbr -e 500 -c 1 -i 6 -a 1 -x {0.0 2.0 6 ------- null}
- -t 0.13 -s 0 -d 2 -p cbr -e 500 -c 1 -i 6 -a 1 -x {0.0 2.0 6 ------- null}
h -t 0.13 -s 0 -d 2 -p cbr -e 500 -c 1 -i 6 -a 1 -x {0.0 2.0 -1 ------- null}
r -t 0.1302 -s 0 -d 2 -p cbr -e 500 -c 1 -i 3 -a 1 -x {0.0 2.0 3 ------- null}
+ -t 0.135 -s 0 -d 2 -p cbr -e 500 -c 1 -i 7 -a 1 -x {0.0 2.0 7 ------- null}
- -t 0.135 -s 0 -d 2 -p cbr -e 500 -c 1 -i 7 -a 1 -x {0.0 2.0 7 ------- null}
h -t 0.135 -s 0 -d 2 -p cbr -e 500 -c 1 -i 7 -a 1 -x {0.0 2.0 -1 ------- null}
r -t 0.1352 -s 0 -d 2 -p cbr -e 500 -c 1 -i 4 -a 1 -x {0.0 2.0 4 ------- null}
+ -t 0.14 -s 0 -d 2 -p cbr -e 500 -c 1 -i 8 -a 1 -x {0.0 2.0 8 ------- null}
- -t 0.14 -s 0 -d 2 -p cbr -e 500 -c 1 -i 8 -a 1 -x {0.0 2.0 8 ------- null}
h -t 0.14 -s 0 -d 2 -p cbr -e 500 -c 1 -i 8 -a 1 -x {0.0 2.0 -1 ------- null}
r -t 0.1402 -s 0 -d 2 -p cbr -e 500 -c 1 -i 5 -a 1 -x {0.0 2.0 5 ------- null}
+ -t 0.145 -s 0 -d 2 -p cbr -e 500 -c 1 -i 9 -a 1 -x {0.0 2.0 9 ------- null}
- -t 0.145 -s 0 -d 2 -p cbr -e 500 -c 1 -i 9 -a 1 -x {0.0 2.0 9 ------- null}
h -t 0.145 -s 0 -d 2 -p cbr -e 500 -c 1 -i 9 -a 1 -x {0.0 2.0 -1 ------- null}
r -t 0.1452 -s 0 -d 2 -p cbr -e 500 -c 1 -i 6 -a 1 -x {0.0 2.0 6 ------- null}
+ -t 0.15 -s 0 -d 2 -p cbr -e 500 -c 1 -i 10 -a 1 -x {0.0 2.0 10 ------- null}
- -t 0.15 -s 0 -d 2 -p cbr -e 500 -c 1 -i 10 -a 1 -x {0.0 2.0 10 ------- null}
h -t 0.15 -s 0 -d 2 -p cbr -e 500 -c 1 -i 10 -a 1 -x {0.0 2.0 -1 ------- null}
r -t 0.1502 -s 0 -d 2 -p cbr -e 500 -c 1 -i 7 -a 1 -x {0.0 2.0 7 ------- null}
+ -t 0.155 -s 0 -d 2 -p cbr -e 500 -c 1 -i 11 -a 1 -x {0.0 2.0 11 ------- null}
- -t 0.155 -s 0 -d 2 -p cbr -e 500 -c 1 -i 11 -a 1 -x {0.0 2.0 11 ------- null}
h -t 0.155 -s 0 -d 2 -p cbr -e 500 -c 1 -i 11 -a 1 -x {0.0 2.0 -1 ------- null}
r -t 0.1552 -s 0 -d 2 -p cbr -e 500 -c 1 -i 8 -a 1 -x {0.0 2.0 8 ------- null}
+ -t 0.16 -s 0 -d 2 -p cbr -e 500 -c 1 -i 12 -a 1 -x {0.0 2.0 12 ------- null}
- -t 0.16 -s 0 -d 2 -p cbr -e 500 -c 1 -i 12 -a 1 -x {0.0 2.0 12 ------- null}
h -t 0.16 -s 0 -d 2 -p cbr -e 500 -c 1 -i 12 -a 1 -x {0.0 2.0 -1 ------- null}
r -t 0.1602 -s 0 -d 2 -p cbr -e 500 -c 1 -i 9 -a 1 -x {0.0 2.0 9 ------- null}
+ -t 0.165 -s 0 -d 2 -p cbr -e 500 -c 1 -i 13 -a 1 -x {0.0 2.0 13 ------- null}
- -t 0.165 -s 0 -d 2 -p cbr -e 500 -c 1 -i 13 -a 1 -x {0.0 2.0 13 ------- null}
h -t 0.165 -s 0 -d 2 -p cbr -e 500 -c 1 -i 13 -a 1 -x {0.0 2.0 -1 ------- null}
r -t 0.1652 -s 0 -d 2 -p cbr -e 500 -c 1 -i 10 -a 1 -x {0.0 2.0 10 ------- null}
+ -t 0.17 -s 0 -d 2 -p cbr -e 500 -c 1 -i 14 -a 1 -x {0.0 2.0 14 ------- null}
- -t 0.17 -s 0 -d 2 -p cbr -e 500 -c 1 -i 14 -a 1 -x {0.0 2.0 14 ------- null}
h -t 0.17 -s 0 -d 2 -p cbr -e 500 -c 1 -i 14 -a 1 -x {0.0 2.0 -1 ------- null}
r -t 0.1702 -s 0 -d 2 -p cbr -e 500 -c 1 -i 11 -a 1 -x {0.0 2.0 11 ------- null}
+ -t 0.175 -s 0 -d 2 -p cbr -e 500 -c 1 -i 15 -a 1 -x {0.0 2.0 15 ------- null}
- -t 0.175 -s 0 -d 2 -p cbr -e 500 -c 1 -i 15 -a 1 -x {0.0 2.0 15 ------- null}
h -t 0.175 -s 0 -d 2 -p cbr -e 500 -c 1 -i 15 -a 1 -x {0.0 2.0 -1 ------- null}
r -t 0.1752 -s 0 -d 2 -p cbr -e 500 -c 1 -i 12 -a 1 -x {0.0 2.0 12 ------- null}
+ -t 0.18 -s 0 -d 2 -p cbr -e 500 -c 1 -i 16 -a 1 -x {0.0 2.0 16 ------- null}
- -t 0.18 -s 0 -d 2 -p cbr -e 500 -c 1 -i 16 -a 1 -x {0.0 2.0 16 ------- null}
h -t 0.18 -s 0 -d 2 -p cbr -e 500 -c 1 -i 16 -a 1 -x {0.0 2.0 -1 ------- null}
r -t 0.1802 -s 0 -d 2 -p cbr -e 500 -c 1 -i 13 -a 1 -x {0.0 2.0 13 ------- null}
+ -t 0.185 -s 0 -d 2 -p cbr -e 500 -c 1 -i 17 -a 1 -x {0.0 2.0 17 ------- null}
- -t 0.185 -s 0 -d 2 -p cbr -e 500 -c 1 -i 17 -a 1 -x {0.0 2.0 17 ------- null}
h -t 0.185 -s 0 -d 2 -p cbr -e 500 -c 1 -i 17 -a 1 -x {0.0 2.0 -1 ------- null}
r -t 0.1852 -s 0 -d 2 -p cbr -e 500 -c 1 -i 14 -a 1 -x {0.0 2.0 14 ------- null}
+ -t 0.19 -s 0 -d 2 -p cbr -e 500 -c 1 -i 18 -a 1 -x {0.0 2.0 18 ------- null}
- -t 0.19 -s 0 -d 2 -p cbr -e 500 -c 1 -i 18 -a 1 -x {0.0 2.0 18 ------- null}
h -t 0.19 -s 0 -d 2 -p cbr -e 500 -c 1 -i 18 -a 1 -x {0.0 2.0 -1 ------- null}
r -t 0.1902 -s 0 -d 2 -p cbr -e 500 -c 1 -i 15 -a 1 -x {0.0 2.0 15 ------- null}
+ -t 0.195 -s 0 -d 2 -p cbr -e 500 -c 1 -i 19 -a 1 -x {0.0 2.0 19 ------- null}
- -t 0.195 -s 0 -d 2 -p cbr -e 500 -c 1 -i 19 -a 1 -x {0.0 2.0 19 ------- null}
h -t 0.195 -s 0 -d 2 -p cbr -e 500 -c 1 -i 19 -a 1 -x {0.0 2.0 -1 ------- null}
r -t 0.1952 -s 0 -d 2 -p cbr -e 500 -c 1 -i 16 -a 1 -x {0.0 2.0 16 ------- null}
+ -t 0.2 -s 1 -d 2 -p cbr -e 1000 -c 2 -i 20 -a 2 -x {1.0 2.0 0 ------- null}
- -t 0.2 -s 1 -d 2 -p cbr -e 1000 -c 2 -i 20 -a 2 -x {1.0 2.0 0 ------- null}
h -t 0.2 -s 1 -d 2 -p cbr -e 1000 -c 2 -i 20 -a 2 -x {1.0 2.0 -1 ------- null}
+ -t 0.2 -s 0 -d 2 -p cbr -e 500 -c 1 -i 21 -a 1 -x {0.0 2.0 20 ------- null}
- -t 0.2 -s 0 -d 2 -p cbr -e 500 -c 1 -i 21 -a 1 -x {0.0 2.0 20 ------- null}
h -t 0.2 -s 0 -d 2 -p cbr -e 500 -c 1 -i 21 -a 1 -x {0.0 2.0 -1 ------- null}
r -t 0.2002 -s 0 -d 2 -p cbr -e 500 -c 1 -i 17 -a 1 -x {0.0 2.0 17 ------- null}
+ -t 0.205 -s 1 -d 2 -p cbr -e 1000 -c 2 -i 22 -a 2 -x {1.0 2.0 1 ------- null}
+ -t 0.205 -s 0 -d 2 -p cbr -e 500 -c 1 -i 23 -a 1 -x {0.0 2.0 21 ------- null}
- -t 0.205 -s 0 -d 2 -p cbr -e 500 -c 1 -i 23 -a 1 -x {0.0 2.0 21 ------- null}
h -t 0.205 -s 0 -d 2 -p cbr -e 500 -c 1 -i 23 -a 1 -x {0.0 2.0 -1 ------- null}
r -t 0.2052 -s 0 -d 2 -p cbr -e 500 -c 1 -i 18 -a 1 -x {0.0 2.0 18 ------- null}
- -t 0.208 -s 1 -d 2 -p cbr -e 1000 -c 2 -i 22 -a 2 -x {1.0 2.0 1 ------- null}
h -t 0.208 -s 1 -d 2 -p cbr -e 1000 -c 2 -i 22 -a 2 -x {1.0 2.0 -1 ------- null}
+ -t 0.21 -s 1 -d 2 -p cbr -e 1000 -c 2 -i 24 -a 2 -x {1.0 2.0 2 ------- null}
+ -t 0.21 -s 0 -d 2 -p cbr -e 500 -c 1 -i 25 -a 1 -x {0.0 2.0 22 ------- null}
- -t 0.21 -s 0 -d 2 -p cbr -e 500 -c 1 -i 25 -a 1 -x {0.0 2.0 22 ------- null}
h -t 0.21 -s 0 -d 2 -p cbr -e 500 -c 1 -i 25 -a 1 -x {0.0 2.0 -1 ------- null}
r -t 0.2102 -s 0 -d 2 -p cbr -e 500 -c 1 -i 19 -a 1 -x {0.0 2.0 19 ------- null}
+ -t 0.215 -s 1 -d 2 -p cbr -e 1000 -c 2 -i 26 -a 2 -x {1.0 2.0 3 ------- null}
+ -t 0.215 -s 0 -d 2 -p cbr -e 500 -c 1 -i 27 -a 1 -x {0.0 2.0 23 ------- null}
- -t 0.215 -s 0 -d 2 -p cbr -e 500 -c 1 -i 27 -a 1 -x {0.0 2.0 23 ------- null}
h -t 0.215 -s 0 -d 2 -p cbr -e 500 -c 1 -i 27 -a 1 -x {0.0 2.0 -1 ------- null}
r -t 0.2152 -s 0 -d 2 -p cbr -e 500 -c 1 -i 21 -a 1 -x {0.0 2.0 20 ------- null}
- -t 0.216 -s 1 -d 2 -p cbr -e 1000 -c 2 -i 24 -a 2 -x {1.0 2.0 2 ------- null}
h -t 0.216 -s 1 -d 2 -p cbr -e 1000 -c 2 -i 24 -a 2 -x {1.0 2.0 -1 ------- null}
+ -t 0.22 -s 1 -d 2 -p cbr -e 1000 -c 2 -i 28 -a 2 -x {1.0 2.0 4 ------- null}
+ -t 0.22 -s 0 -d 2 -p cbr -e 500 -c 1 -i 29 -a 1 -x {0.0 2.0 24 ------- null}
- -t 0.22 -s 0 -d 2 -p cbr -e 500 -c 1 -i 29 -a 1 -x {0.0 2.0 24 ------- null}
h -t 0.22 -s 0 -d 2 -p cbr -e 500 -c 1 -i 29 -a 1 -x {0.0 2.0 -1 ------- null}
r -t 0.2202 -s 0 -d 2 -p cbr -e 500 -c 1 -i 23 -a 1 -x {0.0 2.0 21 ------- null}
r -t 0.223 -s 1 -d 2 -p cbr -e 1000 -c 2 -i 20 -a 2 -x {1.0 2.0 0 ------- null}
- -t 0.224 -s 1 -d 2 -p cbr -e 1000 -c 2 -i 26 -a 2 -x {1.0 2.0 3 ------- null}
h -t 0.224 -s 1 -d 2 -p cbr -e 1000 -c 2 -i 26 -a 2 -x {1.0 2.0 -1 ------- null}
+ -t 0.225 -s 1 -d 2 -p cbr -e 1000 -c 2 -i 30 -a 2 -x {1.0 2.0 5 ------- null}
+ -t 0.225 -s 0 -d 2 -p cbr -e 500 -c 1 -i 31 -a 1 -x {0.0 2.0 25 ------- null}
- -t 0.225 -s 0 -d 2 -p cbr -e 500 -c 1 -i 31 -a 1 -x {0.0 2.0 25 ------- null}
h -t 0.225 -s 0 -d 2 -p cbr -e 500 -c 1 -i 31 -a 1 -x {0.0 2.0 -1 ------- null}
r -t 0.2252 -s 0 -d 2 -p cbr -e 500 -c 1 -i 25 -a 1 -x {0.0 2.0 22 ------- null}
+ -t 0.23 -s 1 -d 2 -p cbr -e 1000 -c 2 -i 32 -a 2 -x {1.0 2.0 6 ------- null}
+ -t 0.23 -s 0 -d 2 -p cbr -e 500 -c 1 -i 33 -a 1 -x {0.0 2.0 26 ------- null}
- -t 0.23 -s 0 -d 2 -p cbr -e 500 -c 1 -i 33 -a 1 -x {0.0 2.0 26 ------- null}
h -t 0.23 -s 0 -d 2 -p cbr -e 500 -c 1 -i 33 -a 1 -x {0.0 2.0 -1 ------- null}
r -t 0.2302 -s 0 -d 2 -p cbr -e 500 -c 1 -i 27 -a 1 -x {0.0 2.0 23 ------- null}
r -t 0.231 -s 1 -d 2 -p cbr -e 1000 -c 2 -i 22 -a 2 -x {1.0 2.0 1 ------- null}
- -t 0.232 -s 1 -d 2 -p cbr -e 1000 -c 2 -i 28 -a 2 -x {1.0 2.0 4 ------- null}
h -t 0.232 -s 1 -d 2 -p cbr -e 1000 -c 2 -i 28 -a 2 -x {1.0 2.0 -1 ------- null}
+ -t 0.235 -s 1 -d 2 -p cbr -e 1000 -c 2 -i 34 -a 2 -x {1.0 2.0 7 ------- null}
+ -t 0.235 -s 0 -d 2 -p cbr -e 500 -c 1 -i 35 -a 1 -x {0.0 2.0 27 ------- null}
- -t 0.235 -s 0 -d 2 -p cbr -e 500 -c 1 -i 35 -a 1 -x {0.0 2.0 27 ------- null}
h -t 0.235 -s 0 -d 2 -p cbr -e 500 -c 1 -i 35 -a 1 -x {0.0 2.0 -1 ------- null}
r -t 0.2352 -s 0 -d 2 -p cbr -e 500 -c 1 -i 29 -a 1 -x {0.0 2.0 24 ------- null}
r -t 0.239 -s 1 -d 2 -p cbr -e 1000 -c 2 -i 24 -a 2 -x {1.0 2.0 2 ------- null}
- -t 0.24 -s 1 -d 2 -p cbr -e 1000 -c 2 -i 30 -a 2 -x {1.0 2.0 5 ------- null}
h -t 0.24 -s 1 -d 2 -p cbr -e 1000 -c 2 -i 30 -a 2 -x {1.0 2.0 -1 ------- null}
+ -t 0.24 -s 1 -d 2 -p cbr -e 1000 -c 2 -i 36 -a 2 -x {1.0 2.0 8 ------- null}
+ -t 0.24 -s 0 -d 2 -p cbr -e 500 -c 1 -i 37 -a 1 -x {0.0 2.0 28 ------- null}
- -t 0.24 -s 0 -d 2 -p cbr -e 500 -c 1 -i 37 -a 1 -x {0.0 2.0 28 ------- null}
h -t 0.24 -s 0 -d 2 -p cbr -e 500 -c 1 -i 37 -a 1 -x {0.0 2.0 -1 ------- null}
r -t 0.2402 -s 0 -d 2 -p cbr -e 500 -c 1 -i 31 -a 1 -x {0.0 2.0 25 ------- null}
+ -t 0.245 -s 1 -d 2 -p cbr -e 1000 -c 2 -i 38 -a 2 -x {1.0 2.0 9 ------- null}
+ -t 0.245 -s 0 -d 2 -p cbr -e 500 -c 1 -i 39 -a 1 -x {0.0 2.0 29 ------- null}
- -t 0.245 -s 0 -d 2 -p cbr -e 500 -c 1 -i 39 -a 1 -x {0.0 2.0 29 ------- null}
h -t 0.245 -s 0 -d 2 -p cbr -e 500 -c 1 -i 39 -a 1 -x {0.0 2.0 -1 ------- null}
r -t 0.2452 -s 0 -d 2 -p cbr -e 500 -c 1 -i 33 -a 1 -x {0.0 2.0 26 ------- null}
r -t 0.247 -s 1 -d 2 -p cbr -e 1000 -c 2 -i 26 -a 2 -x {1.0 2.0 3 ------- null}
- -t 0.248 -s 1 -d 2 -p cbr -e 1000 -c 2 -i 32 -a 2 -x {1.0 2.0 6 ------- null}
h -t 0.248 -s 1 -d 2 -p cbr -e 1000 -c 2 -i 32 -a 2 -x {1.0 2.0 -1 ------- null}
+ -t 0.25 -s 1 -d 2 -p cbr -e 1000 -c 2 -i 40 -a 2 -x {1.0 2.0 10 ------- null}
+ -t 0.25 -s 0 -d 2 -p cbr -e 500 -c 1 -i 41 -a 1 -x {0.0 2.0 30 ------- null}
- -t 0.25 -s 0 -d 2 -p cbr -e 500 -c 1 -i 41 -a 1 -x {0.0 2.0 30 ------- null}
h -t 0.25 -s 0 -d 2 -p cbr -e 500 -c 1 -i 41 -a 1 -x {0.0 2.0 -1 ------- null}
r -t 0.2502 -s 0 -d 2 -p cbr -e 500 -c 1 -i 35 -a 1 -x {0.0 2.0 27 ------- null}
r -t 0.255 -s 1 -d 2 -p cbr -e 1000 -c 2 -i 28 -a 2 -x {1.0 2.0 4 ------- null}
+ -t 0.255 -s 1 -d 2 -p cbr -e 1000 -c 2 -i 42 -a 2 -x {1.0 2.0 11 ------- null}
+ -t 0.255 -s 0 -d 2 -p cbr -e 500 -c 1 -i 43 -a 1 -x {0.0 2.0 31 ------- null}
- -t 0.255 -s 0 -d 2 -p cbr -e 500 -c 1 -i 43 -a 1 -x {0.0 2.0 31 ------- null}
h -t 0.255 -s 0 -d 2 -p cbr -e 500 -c 1 -i 43 -a 1 -x {0.0 2.0 -1 ------- null}
r -t 0.2552 -s 0 -d 2 -p cbr -e 500 -c 1 -i 37 -a 1 -x {0.0 2.0 28 ------- null}
- -t 0.256 -s 1 -d 2 -p cbr -e 1000 -c 2 -i 34 -a 2 -x {1.0 2.0 7 ------- null}
h -t 0.256 -s 1 -d 2 -p cbr -e 1000 -c 2 -i 34 -a 2 -x {1.0 2.0 -1 ------- null}
+ -t 0.26 -s 1 -d 2 -p cbr -e 1000 -c 2 -i 44 -a 2 -x {1.0 2.0 12 ------- null}
+ -t 0.26 -s 0 -d 2 -p cbr -e 500 -c 1 -i 45 -a 1 -x {0.0 2.0 32 ------- null}
- -t 0.26 -s 0 -d 2 -p cbr -e 500 -c 1 -i 45 -a 1 -x {0.0 2.0 32 ------- null}
h -t 0.26 -s 0 -d 2 -p cbr -e 500 -c 1 -i 45 -a 1 -x {0.0 2.0 -1 ------- null}
r -t 0.2602 -s 0 -d 2 -p cbr -e 500 -c 1 -i 39 -a 1 -x {0.0 2.0 29 ------- null}
r -t 0.263 -s 1 -d 2 -p cbr -e 1000 -c 2 -i 30 -a 2 -x {1.0 2.0 5 ------- null}
- -t 0.264 -s 1 -d 2 -p cbr -e 1000 -c 2 -i 36 -a 2 -x {1.0 2.0 8 ------- null}
h -t 0.264 -s 1 -d 2 -p cbr -e 1000 -c 2 -i 36 -a 2 -x {1.0 2.0 -1 ------- null}
+ -t 0.265 -s 1 -d 2 -p cbr -e 1000 -c 2 -i 46 -a 2 -x {1.0 2.0 13 ------- null}
+ -t 0.265 -s 0 -d 2 -p cbr -e 500 -c 1 -i 47 -a 1 -x {0.0 2.0 33 ------- null}
- -t 0.265 -s 0 -d 2 -p cbr -e 500 -c 1 -i 47 -a 1 -x {0.0 2.0 33 ------- null}
h -t 0.265 -s 0 -d 2 -p cbr -e 500 -c 1 -i 47 -a 1 -x {0.0 2.0 -1 ------- null}
r -t 0.2652 -s 0 -d 2 -p cbr -e 500 -c 1 -i 41 -a 1 -x {0.0 2.0 30 ------- null}
+ -t 0.27 -s 1 -d 2 -p cbr -e 1000 -c 2 -i 48 -a 2 -x {1.0 2.0 14 ------- null}
+ -t 0.27 -s 0 -d 2 -p cbr -e 500 -c 1 -i 49 -a 1 -x {0.0 2.0 34 ------- null}
- -t 0.27 -s 0 -d 2 -p cbr -e 500 -c 1 -i 49 -a 1 -x {0.0 2.0 34 ------- null}
h -t 0.27 -s 0 -d 2 -p cbr -e 500 -c 1 -i 49 -a 1 -x {0.0 2.0 -1 ------- null}
r -t 0.2702 -s 0 -d 2 -p cbr -e 500 -c 1 -i 43 -a 1 -x {0.0 2.0 31 ------- null}
r -t 0.271 -s 1 -d 2 -p cbr -e 1000 -c 2 -i 32 -a 2 -x {1.0 2.0 6 ------- null}
- -t 0.272 -s 1 -d 2 -p cbr -e 1000 -c 2 -i 38 -a 2 -x {1.0 2.0 9 ------- null}
h -t 0.272 -s 1 -d 2 -p cbr -e 1000 -c 2 -i 38 -a 2 -x {1.0 2.0 -1 ------- null}
+ -t 0.275 -s 1 -d 2 -p cbr -e 1000 -c 2 -i 50 -a 2 -x {1.0 2.0 15 ------- null}
+ -t 0.275 -s 0 -d 2 -p cbr -e 500 -c 1 -i 51 -a 1 -x {0.0 2.0 35 ------- null}
- -t 0.275 -s 0 -d 2 -p cbr -e 500 -c 1 -i 51 -a 1 -x {0.0 2.0 35 ------- null}
h -t 0.275 -s 0 -d 2 -p cbr -e 500 -c 1 -i 51 -a 1 -x {0.0 2.0 -1 ------- null}
r -t 0.2752 -s 0 -d 2 -p cbr -e 500 -c 1 -i 45 -a 1 -x {0.0 2.0 32 ------- null}
r -t 0.279 -s 1 -d 2 -p cbr -e 1000 -c 2 -i 34 -a 2 -x {1.0 2.0 7 ------- null}
- -t 0.28 -s 1 -d 2 -p cbr -e 1000 -c 2 -i 40 -a 2 -x {1.0 2.0 10 ------- null}
h -t 0.28 -s 1 -d 2 -p cbr -e 1000 -c 2 -i 40 -a 2 -x {1.0 2.0 -1 ------- null}
+ -t 0.28 -s 1 -d 2 -p cbr -e 1000 -c 2 -i 52 -a 2 -x {1.0 2.0 16 ------- null}
+ -t 0.28 -s 0 -d 2 -p cbr -e 500 -c 1 -i 53 -a 1 -x {0.0 2.0 36 ------- null}
- -t 0.28 -s 0 -d 2 -p cbr -e 500 -c 1 -i 53 -a 1 -x {0.0 2.0 36 ------- null}
h -t 0.28 -s 0 -d 2 -p cbr -e 500 -c 1 -i 53 -a 1 -x {0.0 2.0 -1 ------- null}
r -t 0.2802 -s 0 -d 2 -p cbr -e 500 -c 1 -i 47 -a 1 -x {0.0 2.0 33 ------- null}
+ -t 0.285 -s 1 -d 2 -p cbr -e 1000 -c 2 -i 54 -a 2 -x {1.0 2.0 17 ------- null}
+ -t 0.285 -s 0 -d 2 -p cbr -e 500 -c 1 -i 55 -a 1 -x {0.0 2.0 37 ------- null}
- -t 0.285 -s 0 -d 2 -p cbr -e 500 -c 1 -i 55 -a 1 -x {0.0 2.0 37 ------- null}
h -t 0.285 -s 0 -d 2 -p cbr -e 500 -c 1 -i 55 -a 1 -x {0.0 2.0 -1 ------- null}
r -t 0.2852 -s 0 -d 2 -p cbr -e 500 -c 1 -i 49 -a 1 -x {0.0 2.0 34 ------- null}
r -t 0.287 -s 1 -d 2 -p cbr -e 1000 -c 2 -i 36 -a 2 -x {1.0 2.0 8 ------- null}
- -t 0.288 -s 1 -d 2 -p cbr -e 1000 -c 2 -i 42 -a 2 -x {1.0 2.0 11 ------- null}
h -t 0.288 -s 1 -d 2 -p cbr -e 1000 -c 2 -i 42 -a 2 -x {1.0 2.0 -1 ------- null}
+ -t 0.29 -s 1 -d 2 -p cbr -e 1000 -c 2 -i 56 -a 2 -x {1.0 2.0 18 ------- null}
+ -t 0.29 -s 0 -d 2 -p cbr -e 500 -c 1 -i 57 -a 1 -x {0.0 2.0 38 ------- null}
- -t 0.29 -s 0 -d 2 -p cbr -e 500 -c 1 -i 57 -a 1 -x {0.0 2.0 38 ------- null}
h -t 0.29 -s 0 -d 2 -p cbr -e 500 -c 1 -i 57 -a 1 -x {0.0 2.0 -1 ------- null}
r -t 0.2902 -s 0 -d 2 -p cbr -e 500 -c 1 -i 51 -a 1 -x {0.0 2.0 35 ------- null}
r -t 0.295 -s 1 -d 2 -p cbr -e 1000 -c 2 -i 38 -a 2 -x {1.0 2.0 9 ------- null}
+ -t 0.295 -s 1 -d 2 -p cbr -e 1000 -c 2 -i 58 -a 2 -x {1.0 2.0 19 ------- null}
+ -t 0.295 -s 0 -d 2 -p cbr -e 500 -c 1 -i 59 -a 1 -x {0.0 2.0 39 ------- null}
- -t 0.295 -s 0 -d 2 -p cbr -e 500 -c 1 -i 59 -a 1 -x {0.0 2.0 39 ------- null}
h -t 0.295 -s 0 -d 2 -p cbr -e 500 -c 1 -i 59 -a 1 -x {0.0 2.0 -1 ------- null}
r -t 0.2952 -s 0 -d 2 -p cbr -e 500 -c 1 -i 53 -a 1 -x {0.0 2.0 36 ------- null}
- -t 0.296 -s 1 -d 2 -p cbr -e 1000 -c 2 -i 44 -a 2 -x {1.0 2.0 12 ------- null}
h -t 0.296 -s 1 -d 2 -p cbr -e 1000 -c 2 -i 44 -a 2 -x {1.0 2.0 -1 ------- null}
+ -t 0.3 -s 1 -d 2 -p cbr -e 1000 -c 2 -i 60 -a 2 -x {1.0 2.0 20 ------- null}
+ -t 0.3 -s 0 -d 2 -p cbr -e 500 -c 1 -i 61 -a 1 -x {0.0 2.0 40 ------- null}
- -t 0.3 -s 0 -d 2 -p cbr -e 500 -c 1 -i 61 -a 1 -x {0.0 2.0 40 ------- null}
h -t 0.3 -s 0 -d 2 -p cbr -e 500 -c 1 -i 61 -a 1 -x {0.0 2.0 -1 ------- null}
r -t 0.3002 -s 0 -d 2 -p cbr -e 500 -c 1 -i 55 -a 1 -x {0.0 2.0 37 ------- null}
r -t 0.303 -s 1 -d 2 -p cbr -e 1000 -c 2 -i 40 -a 2 -x {1.0 2.0 10 ------- null}
- -t 0.304 -s 1 -d 2 -p cbr -e 1000 -c 2 -i 46 -a 2 -x {1.0 2.0 13 ------- null}
h -t 0.304 -s 1 -d 2 -p cbr -e 1000 -c 2 -i 46 -a 2 -x {1.0 2.0 -1 ------- null}
+ -t 0.305 -s 1 -d 2 -p cbr -e 1000 -c 2 -i 62 -a 2 -x {1.0 2.0 21 ------- null}
+ -t 0.305 -s 0 -d 2 -p cbr -e 500 -c 1 -i 63 -a 1 -x {0.0 2.0 41 ------- null}
- -t 0.305 -s 0 -d 2 -p cbr -e 500 -c 1 -i 63 -a 1 -x {0.0 2.0 41 ------- null}
h -t 0.305 -s 0 -d 2 -p cbr -e 500 -c 1 -i 63 -a 1 -x {0.0 2.0 -1 ------- null}
r -t 0.3052 -s 0 -d 2 -p cbr -e 500 -c 1 -i 57 -a 1 -x {0.0 2.0 38 ------- null}
+ -t 0.31 -s 1 -d 2 -p cbr -e 1000 -c 2 -i 64 -a 2 -x {1.0 2.0 22 ------- null}
+ -t 0.31 -s 0 -d 2 -p cbr -e 500 -c 1 -i 65 -a 1 -x {0.0 2.0 42 ------- null}
- -t 0.31 -s 0 -d 2 -p cbr -e 500 -c 1 -i 65 -a 1 -x {0.0 2.0 42 ------- null}
h -t 0.31 -s 0 -d 2 -p cbr -e 500 -c 1 -i 65 -a 1 -x {0.0 2.0 -1 ------- null}
r -t 0.3102 -s 0 -d 2 -p cbr -e 500 -c 1 -i 59 -a 1 -x {0.0 2.0 39 ------- null}
r -t 0.311 -s 1 -d 2 -p cbr -e 1000 -c 2 -i 42 -a 2 -x {1.0 2.0 11 ------- null}
- -t 0.312 -s 1 -d 2 -p cbr -e 1000 -c 2 -i 48 -a 2 -x {1.0 2.0 14 ------- null}
h -t 0.312 -s 1 -d 2 -p cbr -e 1000 -c 2 -i 48 -a 2 -x {1.0 2.0 -1 ------- null}
+ -t 0.315 -s 1 -d 2 -p cbr -e 1000 -c 2 -i 66 -a 2 -x {1.0 2.0 23 ------- null}
+ -t 0.315 -s 0 -d 2 -p cbr -e 500 -c 1 -i 67 -a 1 -x {0.0 2.0 43 ------- null}
- -t 0.315 -s 0 -d 2 -p cbr -e 500 -c 1 -i 67 -a 1 -x {0.0 2.0 43 ------- null}
h -t 0.315 -s 0 -d 2 -p cbr -e 500 -c 1 -i 67 -a 1 -x {0.0 2.0 -1 ------- null}
r -t 0.3152 -s 0 -d 2 -p cbr -e 500 -c 1 -i 61 -a 1 -x {0.0 2.0 40 ------- null}
r -t 0.319 -s 1 -d 2 -p cbr -e 1000 -c 2 -i 44 -a 2 -x {1.0 2.0 12 ------- null}
- -t 0.32 -s 1 -d 2 -p cbr -e 1000 -c 2 -i 50 -a 2 -x {1.0 2.0 15 ------- null}
h -t 0.32 -s 1 -d 2 -p cbr -e 1000 -c 2 -i 50 -a 2 -x {1.0 2.0 -1 ------- null}
+ -t 0.32 -s 1 -d 2 -p cbr -e 1000 -c 2 -i 68 -a 2 -x {1.0 2.0 24 ------- null}
+ -t 0.32 -s 0 -d 2 -p cbr -e 500 -c 1 -i 69 -a 1 -x {0.0 2.0 44 ------- null}
- -t 0.32 -s 0 -d 2 -p cbr -e 500 -c 1 -i 69 -a 1 -x {0.0 2.0 44 ------- null}
h -t 0.32 -s 0 -d 2 -p cbr -e 500 -c 1 -i 69 -a 1 -x {0.0 2.0 -1 ------- null}
r -t 0.3202 -s 0 -d 2 -p cbr -e 500 -c 1 -i 63 -a 1 -x {0.0 2.0 41 ------- null}
+ -t 0.325 -s 1 -d 2 -p cbr -e 1000 -c 2 -i 70 -a 2 -x {1.0 2.0 25 ------- null}
+ -t 0.325 -s 0 -d 2 -p cbr -e 500 -c 1 -i 71 -a 1 -x {0.0 2.0 45 ------- null}
- -t 0.325 -s 0 -d 2 -p cbr -e 500 -c 1 -i 71 -a 1 -x {0.0 2.0 45 ------- null}
h -t 0.325 -s 0 -d 2 -p cbr -e 500 -c 1 -i 71 -a 1 -x {0.0 2.0 -1 ------- null}
r -t 0.3252 -s 0 -d 2 -p cbr -e 500 -c 1 -i 65 -a 1 -x {0.0 2.0 42 ------- null}
r -t 0.327 -s 1 -d 2 -p cbr -e 1000 -c 2 -i 46 -a 2 -x {1.0 2.0 13 ------- null}
- -t 0.328 -s 1 -d 2 -p cbr -e 1000 -c 2 -i 52 -a 2 -x {1.0 2.0 16 ------- null}
h -t 0.328 -s 1 -d 2 -p cbr -e 1000 -c 2 -i 52 -a 2 -x {1.0 2.0 -1 ------- null}
+ -t 0.33 -s 1 -d 2 -p cbr -e 1000 -c 2 -i 72 -a 2 -x {1.0 2.0 26 ------- null}
+ -t 0.33 -s 0 -d 2 -p cbr -e 500 -c 1 -i 73 -a 1 -x {0.0 2.0 46 ------- null}
- -t 0.33 -s 0 -d 2 -p cbr -e 500 -c 1 -i 73 -a 1 -x {0.0 2.0 46 ------- null}
h -t 0.33 -s 0 -d 2 -p cbr -e 500 -c 1 -i 73 -a 1 -x {0.0 2.0 -1 ------- null}
r -t 0.3302 -s 0 -d 2 -p cbr -e 500 -c 1 -i 67 -a 1 -x {0.0 2.0 43 ------- null}
r -t 0.335 -s 1 -d 2 -p cbr -e 1000 -c 2 -i 48 -a 2 -x {1.0 2.0 14 ------- null}
+ -t 0.335 -s 1 -d 2 -p cbr -e 1000 -c 2 -i 74 -a 2 -x {1.0 2.0 27 ------- null}
+ -t 0.335 -s 0 -d 2 -p cbr -e 500 -c 1 -i 75 -a 1 -x {0.0 2.0 47 ------- null}
- -t 0.335 -s 0 -d 2 -p cbr -e 500 -c 1 -i 75 -a 1 -x {0.0 2.0 47 ------- null}
h -t 0.335 -s 0 -d 2 -p cbr -e 500 -c 1 -i 75 -a 1 -x {0.0 2.0 -1 ------- null}
r -t 0.3352 -s 0 -d 2 -p cbr -e 500 -c 1 -i 69 -a 1 -x {0.0 2.0 44 ------- null}
- -t 0.336 -s 1 -d 2 -p cbr -e 1000 -c 2 -i 54 -a 2 -x {1.0 2.0 17 ------- null}
h -t 0.336 -s 1 -d 2 -p cbr -e 1000 -c 2 -i 54 -a 2 -x {1.0 2.0 -1 ------- null}
+ -t 0.34 -s 1 -d 2 -p cbr -e 1000 -c 2 -i 76 -a 2 -x {1.0 2.0 28 ------- null}
+ -t 0.34 -s 0 -d 2 -p cbr -e 500 -c 1 -i 77 -a 1 -x {0.0 2.0 48 ------- null}
- -t 0.34 -s 0 -d 2 -p cbr -e 500 -c 1 -i 77 -a 1 -x {0.0 2.0 48 ------- null}
h -t 0.34 -s 0 -d 2 -p cbr -e 500 -c 1 -i 77 -a 1 -x {0.0 2.0 -1 ------- null}
r -t 0.3402 -s 0 -d 2 -p cbr -e 500 -c 1 -i 71 -a 1 -x {0.0 2.0 45 ------- null}
r -t 0.343 -s 1 -d 2 -p cbr -e 1000 -c 2 -i 50 -a 2 -x {1.0 2.0 15 ------- null}
- -t 0.344 -s 1 -d 2 -p cbr -e 1000 -c 2 -i 56 -a 2 -x {1.0 2.0 18 ------- null}
h -t 0.344 -s 1 -d 2 -p cbr -e 1000 -c 2 -i 56 -a 2 -x {1.0 2.0 -1 ------- null}
+ -t 0.345 -s 1 -d 2 -p cbr -e 1000 -c 2 -i 78 -a 2 -x {1.0 2.0 29 ------- null}
+ -t 0.345 -s 0 -d 2 -p cbr -e 500 -c 1 -i 79 -a 1 -x {0.0 2.0 49 ------- null}
- -t 0.345 -s 0 -d 2 -p cbr -e 500 -c 1 -i 79 -a 1 -x {0.0 2.0 49 ------- null}
h -t 0.345 -s 0 -d 2 -p cbr -e 500 -c 1 -i 79 -a 1 -x {0.0 2.0 -1 ------- null}
r -t 0.3452 -s 0 -d 2 -p cbr -e 500 -c 1 -i 73 -a 1 -x {0.0 2.0 46 ------- null}
+ -t 0.35 -s 1 -d 2 -p cbr -e 1000 -c 2 -i 80 -a 2 -x {1.0 2.0 30 ------- null}
+ -t 0.35 -s 0 -d 2 -p cbr -e 500 -c 1 -i 81 -a 1 -x {0.0 2.0 50 ------- null}
- -t 0.35 -s 0 -d 2 -p cbr -e 500 -c 1 -i 81 -a 1 -x {0.0 2.0 50 ------- null}
h -t 0.35 -s 0 -d 2 -p cbr -e 500 -c 1 -i 81 -a 1 -x {0.0 2.0 -1 ------- null}
r -t 0.3502 -s 0 -d 2 -p cbr -e 500 -c 1 -i 75 -a 1 -x {0.0 2.0 47 ------- null}
r -t 0.351 -s 1 -d 2 -p cbr -e 1000 -c 2 -i 52 -a 2 -x {1.0 2.0 16 ------- null}
- -t 0.352 -s 1 -d 2 -p cbr -e 1000 -c 2 -i 58 -a 2 -x {1.0 2.0 19 ------- null}
h -t 0.352 -s 1 -d 2 -p cbr -e 1000 -c 2 -i 58 -a 2 -x {1.0 2.0 -1 ------- null}
+ -t 0.355 -s 1 -d 2 -p cbr -e 1000 -c 2 -i 82 -a 2 -x {1.0 2.0 31 ------- null}
+ -t 0.355 -s 0 -d 2 -p cbr -e 500 -c 1 -i 83 -a 1 -x {0.0 2.0 51 ------- null}
- -t 0.355 -s 0 -d 2 -p cbr -e 500 -c 1 -i 83 -a 1 -x {0.0 2.0 51 ------- null}
h -t 0.355 -s 0 -d 2 -p cbr -e 500 -c 1 -i 83 -a 1 -x {0.0 2.0 -1 ------- null}
r -t 0.3552 -s 0 -d 2 -p cbr -e 500 -c 1 -i 77 -a 1 -x {0.0 2.0 48 ------- null}
r -t 0.359 -s 1 -d 2 -p cbr -e 1000 -c 2 -i 54 -a 2 -x {1.0 2.0 17 ------- null}
- -t 0.36 -s 1 -d 2 -p cbr -e 1000 -c 2 -i 60 -a 2 -x {1.0 2.0 20 ------- null}
h -t 0.36 -s 1 -d 2 -p cbr -e 1000 -c 2 -i 60 -a 2 -x {1.0 2.0 -1 ------- null}
+ -t 0.36 -s 1 -d 2 -p cbr -e 1000 -c 2 -i 84 -a 2 -x {1.0 2.0 32 ------- null}
+ -t 0.36 -s 0 -d 2 -p cbr -e 500 -c 1 -i 85 -a 1 -x {0.0 2.0 52 ------- null}
- -t 0.36 -s 0 -d 2 -p cbr -e 500 -c 1 -i 85 -a 1 -x {0.0 2.0 52 ------- null}
h -t 0.36 -s 0 -d 2 -p cbr -e 500 -c 1 -i 85 -a 1 -x {0.0 2.0 -1 ------- null}
r -t 0.3602 -s 0 -d 2 -p cbr -e 500 -c 1 -i 79 -a 1 -x {0.0 2.0 49 ------- null}
+ -t 0.365 -s 1 -d 2 -p cbr -e 1000 -c 2 -i 86 -a 2 -x {1.0 2.0 33 ------- null}
+ -t 0.365 -s 0 -d 2 -p cbr -e 500 -c 1 -i 87 -a 1 -x {0.0 2.0 53 ------- null}
- -t 0.365 -s 0 -d 2 -p cbr -e 500 -c 1 -i 87 -a 1 -x {0.0 2.0 53 ------- null}
h -t 0.365 -s 0 -d 2 -p cbr -e 500 -c 1 -i 87 -a 1 -x {0.0 2.0 -1 ------- null}
r -t 0.3652 -s 0 -d 2 -p cbr -e 500 -c 1 -i 81 -a 1 -x {0.0 2.0 50 ------- null}
r -t 0.367 -s 1 -d 2 -p cbr -e 1000 -c 2 -i 56 -a 2 -x {1.0 2.0 18 ------- null}
- -t 0.368 -s 1 -d 2 -p cbr -e 1000 -c 2 -i 62 -a 2 -x {1.0 2.0 21 ------- null}
h -t 0.368 -s 1 -d 2 -p cbr -e 1000 -c 2 -i 62 -a 2 -x {1.0 2.0 -1 ------- null}
+ -t 0.37 -s 1 -d 2 -p cbr -e 1000 -c 2 -i 88 -a 2 -x {1.0 2.0 34 ------- null}
+ -t 0.37 -s 0 -d 2 -p cbr -e 500 -c 1 -i 89 -a 1 -x {0.0 2.0 54 ------- null}
- -t 0.37 -s 0 -d 2 -p cbr -e 500 -c 1 -i 89 -a 1 -x {0.0 2.0 54 ------- null}
h -t 0.37 -s 0 -d 2 -p cbr -e 500 -c 1 -i 89 -a 1 -x {0.0 2.0 -1 ------- null}
r -t 0.3702 -s 0 -d 2 -p cbr -e 500 -c 1 -i 83 -a 1 -x {0.0 2.0 51 ------- null}
r -t 0.375 -s 1 -d 2 -p cbr -e 1000 -c 2 -i 58 -a 2 -x {1.0 2.0 19 ------- null}
+ -t 0.375 -s 1 -d 2 -p cbr -e 1000 -c 2 -i 90 -a 2 -x {1.0 2.0 35 ------- null}
+ -t 0.375 -s 0 -d 2 -p cbr -e 500 -c 1 -i 91 -a 1 -x {0.0 2.0 55 ------- null}
- -t 0.375 -s 0 -d 2 -p cbr -e 500 -c 1 -i 91 -a 1 -x {0.0 2.0 55 ------- null}
h -t 0.375 -s 0 -d 2 -p cbr -e 500 -c 1 -i 91 -a 1 -x {0.0 2.0 -1 ------- null}
r -t 0.3752 -s 0 -d 2 -p cbr -e 500 -c 1 -i 85 -a 1 -x {0.0 2.0 52 ------- null}
- -t 0.376 -s 1 -d 2 -p cbr -e 1000 -c 2 -i 64 -a 2 -x {1.0 2.0 22 ------- null}
h -t 0.376 -s 1 -d 2 -p cbr -e 1000 -c 2 -i 64 -a 2 -x {1.0 2.0 -1 ------- null}
+ -t 0.38 -s 1 -d 2 -p cbr -e 1000 -c 2 -i 92 -a 2 -x {1.0 2.0 36 ------- null}
+ -t 0.38 -s 0 -d 2 -p cbr -e 500 -c 1 -i 93 -a 1 -x {0.0 2.0 56 ------- null}
- -t 0.38 -s 0 -d 2 -p cbr -e 500 -c 1 -i 93 -a 1 -x {0.0 2.0 56 ------- null}
h -t 0.38 -s 0 -d 2 -p cbr -e 500 -c 1 -i 93 -a 1 -x {0.0 2.0 -1 ------- null}
r -t 0.3802 -s 0 -d 2 -p cbr -e 500 -c 1 -i 87 -a 1 -x {0.0 2.0 53 ------- null}
r -t 0.383 -s 1 -d 2 -p cbr -e 1000 -c 2 -i 60 -a 2 -x {1.0 2.0 20 ------- null}
- -t 0.384 -s 1 -d 2 -p cbr -e 1000 -c 2 -i 66 -a 2 -x {1.0 2.0 23 ------- null}
h -t 0.384 -s 1 -d 2 -p cbr -e 1000 -c 2 -i 66 -a 2 -x {1.0 2.0 -1 ------- null}
+ -t 0.385 -s 1 -d 2 -p cbr -e 1000 -c 2 -i 94 -a 2 -x {1.0 2.0 37 ------- null}
+ -t 0.385 -s 0 -d 2 -p cbr -e 500 -c 1 -i 95 -a 1 -x {0.0 2.0 57 ------- null}
- -t 0.385 -s 0 -d 2 -p cbr -e 500 -c 1 -i 95 -a 1 -x {0.0 2.0 57 ------- null}
h -t 0.385 -s 0 -d 2 -p cbr -e 500 -c 1 -i 95 -a 1 -x {0.0 2.0 -1 ------- null}
r -t 0.3852 -s 0 -d 2 -p cbr -e 500 -c 1 -i 89 -a 1 -x {0.0 2.0 54 ------- null}
+ -t 0.39 -s 1 -d 2 -p cbr -e 1000 -c 2 -i 96 -a 2 -x {1.0 2.0 38 ------- null}
+ -t 0.39 -s 0 -d 2 -p cbr -e 500 -c 1 -i 97 -a 1 -x {0.0 2.0 58 ------- null}
- -t 0.39 -s 0 -d 2 -p cbr -e 500 -c 1 -i 97 -a 1 -x {0.0 2.0 58 ------- null}
h -t 0.39 -s 0 -d 2 -p cbr -e 500 -c 1 -i 97 -a 1 -x {0.0 2.0 -1 ------- null}
r -t 0.3902 -s 0 -d 2 -p cbr -e 500 -c 1 -i 91 -a 1 -x {0.0 2.0 55 ------- null}
r -t 0.391 -s 1 -d 2 -p cbr -e 1000 -c 2 -i 62 -a 2 -x {1.0 2.0 21 ------- null}
- -t 0.392 -s 1 -d 2 -p cbr -e 1000 -c 2 -i 68 -a 2 -x {1.0 2.0 24 ------- null}
h -t 0.392 -s 1 -d 2 -p cbr -e 1000 -c 2 -i 68 -a 2 -x {1.0 2.0 -1 ------- null}
+ -t 0.395 -s 1 -d 2 -p cbr -e 1000 -c 2 -i 98 -a 2 -x {1.0 2.0 39 ------- null}
+ -t 0.395 -s 0 -d 2 -p cbr -e 500 -c 1 -i 99 -a 1 -x {0.0 2.0 59 ------- null}
- -t 0.395 -s 0 -d 2 -p cbr -e 500 -c 1 -i 99 -a 1 -x {0.0 2.0 59 ------- null}
h -t 0.395 -s 0 -d 2 -p cbr -e 500 -c 1 -i 99 -a 1 -x {0.0 2.0 -1 ------- null}
r -t 0.3952 -s 0 -d 2 -p cbr -e 500 -c 1 -i 93 -a 1 -x {0.0 2.0 56 ------- null}
r -t 0.399 -s 1 -d 2 -p cbr -e 1000 -c 2 -i 64 -a 2 -x {1.0 2.0 22 ------- null}
- -t 0.4 -s 1 -d 2 -p cbr -e 1000 -c 2 -i 70 -a 2 -x {1.0 2.0 25 ------- null}
h -t 0.4 -s 1 -d 2 -p cbr -e 1000 -c 2 -i 70 -a 2 -x {1.0 2.0 -1 ------- null}
+ -t 0.4 -s 1 -d 2 -p cbr -e 1000 -c 2 -i 100 -a 2 -x {1.0 2.0 40 ------- null}
+ -t 0.4 -s 0 -d 2 -p cbr -e 500 -c 1 -i 101 -a 1 -x {0.0 2.0 60 ------- null}
- -t 0.4 -s 0 -d 2 -p cbr -e 500 -c 1 -i 101 -a 1 -x {0.0 2.0 60 ------- null}
h -t 0.4 -s 0 -d 2 -p cbr -e 500 -c 1 -i 101 -a 1 -x {0.0 2.0 -1 ------- null}
r -t 0.4002 -s 0 -d 2 -p cbr -e 500 -c 1 -i 95 -a 1 -x {0.0 2.0 57 ------- null}
+ -t 0.405 -s 1 -d 2 -p cbr -e 1000 -c 2 -i 102 -a 2 -x {1.0 2.0 41 ------- null}
+ -t 0.405 -s 0 -d 2 -p cbr -e 500 -c 1 -i 103 -a 1 -x {0.0 2.0 61 ------- null}
- -t 0.405 -s 0 -d 2 -p cbr -e 500 -c 1 -i 103 -a 1 -x {0.0 2.0 61 ------- null}
h -t 0.405 -s 0 -d 2 -p cbr -e 500 -c 1 -i 103 -a 1 -x {0.0 2.0 -1 ------- null}
r -t 0.4052 -s 0 -d 2 -p cbr -e 500 -c 1 -i 97 -a 1 -x {0.0 2.0 58 ------- null}
r -t 0.407 -s 1 -d 2 -p cbr -e 1000 -c 2 -i 66 -a 2 -x {1.0 2.0 23 ------- null}
- -t 0.408 -s 1 -d 2 -p cbr -e 1000 -c 2 -i 72 -a 2 -x {1.0 2.0 26 ------- null}
h -t 0.408 -s 1 -d 2 -p cbr -e 1000 -c 2 -i 72 -a 2 -x {1.0 2.0 -1 ------- null}
+ -t 0.41 -s 1 -d 2 -p cbr -e 1000 -c 2 -i 104 -a 2 -x {1.0 2.0 42 ------- null}
+ -t 0.41 -s 0 -d 2 -p cbr -e 500 -c 1 -i 105 -a 1 -x {0.0 2.0 62 ------- null}
- -t 0.41 -s 0 -d 2 -p cbr -e 500 -c 1 -i 105 -a 1 -x {0.0 2.0 62 ------- null}
h -t 0.41 -s 0 -d 2 -p cbr -e 500 -c 1 -i 105 -a 1 -x {0.0 2.0 -1 ------- null}