n -t 0 -s 0 -S DLABEL -l "ping0" -L ""
n -t 0 -s 2 -S DLABEL -l "tcp0_source" -L ""
n -t 0 -s 4 -S DLABEL -l "tcp0_destination" -L ""
n -t 0 -s 5 -S DLABEL -l "ping5" -L ""
n -t 0 -s 3 -S DLABEL -l "tcp1_source" -L ""
n -t 0 -s 1 -S DLABEL -l "tcp1_destination" -L ""
V -t * -v 1.0a5 -a 0
A -t * -n 1 -p 0 -o 0xffffffff -c 31 -a 1
A -t * -h 1 -m 2147483647 -s 0
c -t * -i 4 -n orange
c -t * -i 1 -n Blue
c -t * -i 2 -n Red
c -t * -i 3 -n Green
n -t * -a 4 -s 4 -S UP -v circle -c black -i black
n -t * -a 0 -s 0 -S UP -v circle -c black -i black
n -t * -a 5 -s 5 -S UP -v circle -c black -i black
n -t * -a 1 -s 1 -S UP -v circle -c black -i black
n -t * -a 2 -s 2 -S UP -v circle -c black -i black
n -t * -a 3 -s 3 -S UP -v circle -c black -i black
l -t * -s 0 -d 1 -S UP -r 100000 -D 0.050000000000000003 -c black -o right-up
l -t * -s 1 -d 2 -S UP -r 100000 -D 0.050000000000000003 -c black -o right-down
l -t * -s 2 -d 3 -S UP -r 100000 -D 0.050000000000000003 -c black -o right-up
l -t * -s 3 -d 4 -S UP -r 100000 -D 0.050000000000000003 -c black -o right-down
l -t * -s 4 -d 5 -S UP -r 100000 -D 0.050000000000000003 -c black -o right-up
q -t * -s 4 -d 3 -a 0.5
q -t * -s 3 -d 4 -a 0.5
q -t * -s 3 -d 2 -a 0.5
q -t * -s 2 -d 3 -a 0.5
+ -t 0.1 -s 0 -d 1 -p ping -e 64 -c 1 -i 0 -a 1 -x {0.0 5.0 -1 ------- null}
- -t 0.1 -s 0 -d 1 -p ping -e 64 -c 1 -i 0 -a 1 -x {0.0 5.0 -1 ------- null}
h -t 0.1 -s 0 -d 1 -p ping -e 64 -c 1 -i 0 -a 1 -x {0.0 5.0 -1 ------- null}
r -t 0.15512 -s 0 -d 1 -p ping -e 64 -c 1 -i 0 -a 1 -x {0.0 5.0 -1 ------- null}
+ -t 0.15512 -s 1 -d 2 -p ping -e 64 -c 1 -i 0 -a 1 -x {0.0 5.0 -1 ------- null}
- -t 0.15512 -s 1 -d 2 -p ping -e 64 -c 1 -i 0 -a 1 -x {0.0 5.0 -1 ------- null}
h -t 0.15512 -s 1 -d 2 -p ping -e 64 -c 1 -i 0 -a 1 -x {0.0 5.0 -1 ------- null}
+ -t 0.2 -s 0 -d 1 -p ping -e 64 -c 1 -i 1 -a 1 -x {0.0 5.0 -1 ------- null}
- -t 0.2 -s 0 -d 1 -p ping -e 64 -c 1 -i 1 -a 1 -x {0.0 5.0 -1 ------- null}
h -t 0.2 -s 0 -d 1 -p ping -e 64 -c 1 -i 1 -a 1 -x {0.0 5.0 -1 ------- null}
+ -t 0.2 -s 3 -d 2 -p tcp -e 40 -c 4 -i 2 -a 4 -x {3.0 1.0 0 ------- null}
- -t 0.2 -s 3 -d 2 -p tcp -e 40 -c 4 -i 2 -a 4 -x {3.0 1.0 0 ------- null}
h -t 0.2 -s 3 -d 2 -p tcp -e 40 -c 4 -i 2 -a 4 -x {3.0 1.0 -1 ------- null}
r -t 0.21024 -s 1 -d 2 -p ping -e 64 -c 1 -i 0 -a 1 -x {0.0 5.0 -1 ------- null}
+ -t 0.21024 -s 2 -d 3 -p ping -e 64 -c 1 -i 0 -a 1 -x {0.0 5.0 -1 ------- null}
- -t 0.21024 -s 2 -d 3 -p ping -e 64 -c 1 -i 0 -a 1 -x {0.0 5.0 -1 ------- null}
h -t 0.21024 -s 2 -d 3 -p ping -e 64 -c 1 -i 0 -a 1 -x {0.0 5.0 -1 ------- null}
r -t 0.2532 -s 3 -d 2 -p tcp -e 40 -c 4 -i 2 -a 4 -x {3.0 1.0 0 ------- null}
+ -t 0.2532 -s 2 -d 1 -p tcp -e 40 -c 4 -i 2 -a 4 -x {3.0 1.0 0 ------- null}
- -t 0.2532 -s 2 -d 1 -p tcp -e 40 -c 4 -i 2 -a 4 -x {3.0 1.0 0 ------- null}
h -t 0.2532 -s 2 -d 1 -p tcp -e 40 -c 4 -i 2 -a 4 -x {3.0 1.0 -1 ------- null}
r -t 0.25512 -s 0 -d 1 -p ping -e 64 -c 1 -i 1 -a 1 -x {0.0 5.0 -1 ------- null}
+ -t 0.25512 -s 1 -d 2 -p ping -e 64 -c 1 -i 1 -a 1 -x {0.0 5.0 -1 ------- null}
- -t 0.25512 -s 1 -d 2 -p ping -e 64 -c 1 -i 1 -a 1 -x {0.0 5.0 -1 ------- null}
h -t 0.25512 -s 1 -d 2 -p ping -e 64 -c 1 -i 1 -a 1 -x {0.0 5.0 -1 ------- null}
r -t 0.26536 -s 2 -d 3 -p ping -e 64 -c 1 -i 0 -a 1 -x {0.0 5.0 -1 ------- null}
+ -t 0.26536 -s 3 -d 4 -p ping -e 64 -c 1 -i 0 -a 1 -x {0.0 5.0 -1 ------- null}
- -t 0.26536 -s 3 -d 4 -p ping -e 64 -c 1 -i 0 -a 1 -x {0.0 5.0 -1 ------- null}
h -t 0.26536 -s 3 -d 4 -p ping -e 64 -c 1 -i 0 -a 1 -x {0.0 5.0 -1 ------- null}
+ -t 0.3 -s 0 -d 1 -p ping -e 64 -c 1 -i 3 -a 1 -x {0.0 5.0 -1 ------- null}
- -t 0.3 -s 0 -d 1 -p ping -e 64 -c 1 -i 3 -a 1 -x {0.0 5.0 -1 ------- null}
h -t 0.3 -s 0 -d 1 -p ping -e 64 -c 1 -i 3 -a 1 -x {0.0 5.0 -1 ------- null}
+ -t 0.3 -s 0 -d 1 -p ping -e 64 -c 1 -i 4 -a 1 -x {0.0 5.0 -1 ------- null}
- -t 0.30512 -s 0 -d 1 -p ping -e 64 -c 1 -i 4 -a 1 -x {0.0 5.0 -1 ------- null}
h -t 0.30512 -s 0 -d 1 -p ping -e 64 -c 1 -i 4 -a 1 -x {0.0 5.0 -1 ------- null}
r -t 0.3064 -s 2 -d 1 -p tcp -e 40 -c 4 -i 2 -a 4 -x {3.0 1.0 0 ------- null}
+ -t 0.3064 -s 1 -d 2 -p ack -e 40 -c 4 -i 5 -a 4 -x {1.0 3.0 0 ------- null}
- -t 0.3064 -s 1 -d 2 -p ack -e 40 -c 4 -i 5 -a 4 -x {1.0 3.0 0 ------- null}
h -t 0.3064 -s 1 -d 2 -p ack -e 40 -c 4 -i 5 -a 4 -x {1.0 3.0 -1 ------- null}
r -t 0.31024 -s 1 -d 2 -p ping -e 64 -c 1 -i 1 -a 1 -x {0.0 5.0 -1 ------- null}
+ -t 0.31024 -s 2 -d 3 -p ping -e 64 -c 1 -i 1 -a 1 -x {0.0 5.0 -1 ------- null}
- -t 0.31024 -s 2 -d 3 -p ping -e 64 -c 1 -i 1 -a 1 -x {0.0 5.0 -1 ------- null}
h -t 0.31024 -s 2 -d 3 -p ping -e 64 -c 1 -i 1 -a 1 -x {0.0 5.0 -1 ------- null}
r -t 0.32048 -s 3 -d 4 -p ping -e 64 -c 1 -i 0 -a 1 -x {0.0 5.0 -1 ------- null}
+ -t 0.32048 -s 4 -d 5 -p ping -e 64 -c 1 -i 0 -a 1 -x {0.0 5.0 -1 ------- null}
- -t 0.32048 -s 4 -d 5 -p ping -e 64 -c 1 -i 0 -a 1 -x {0.0 5.0 -1 ------- null}
h -t 0.32048 -s 4 -d 5 -p ping -e 64 -c 1 -i 0 -a 1 -x {0.0 5.0 -1 ------- null}
r -t 0.35512 -s 0 -d 1 -p ping -e 64 -c 1 -i 3 -a 1 -x {0.0 5.0 -1 ------- null}
+ -t 0.35512 -s 1 -d 2 -p ping -e 64 -c 1 -i 3 -a 1 -x {0.0 5.0 -1 ------- null}
- -t 0.35512 -s 1 -d 2 -p ping -e 64 -c 1 -i 3 -a 1 -x {0.0 5.0 -1 ------- null}
h -t 0.35512 -s 1 -d 2 -p ping -e 64 -c 1 -i 3 -a 1 -x {0.0 5.0 -1 ------- null}
r -t 0.3596 -s 1 -d 2 -p ack -e 40 -c 4 -i 5 -a 4 -x {1.0 3.0 0 ------- null}
+ -t 0.3596 -s 2 -d 3 -p ack -e 40 -c 4 -i 5 -a 4 -x {1.0 3.0 0 ------- null}
- -t 0.3596 -s 2 -d 3 -p ack -e 40 -c 4 -i 5 -a 4 -x {1.0 3.0 0 ------- null}
h -t 0.3596 -s 2 -d 3 -p ack -e 40 -c 4 -i 5 -a 4 -x {1.0 3.0 -1 ------- null}
r -t 0.36024 -s 0 -d 1 -p ping -e 64 -c 1 -i 4 -a 1 -x {0.0 5.0 -1 ------- null}
+ -t 0.36024 -s 1 -d 2 -p ping -e 64 -c 1 -i 4 -a 1 -x {0.0 5.0 -1 ------- null}
- -t 0.36024 -s 1 -d 2 -p ping -e 64 -c 1 -i 4 -a 1 -x {0.0 5.0 -1 ------- null}
h -t 0.36024 -s 1 -d 2 -p ping -e 64 -c 1 -i 4 -a 1 -x {0.0 5.0 -1 ------- null}
r -t 0.36536 -s 2 -d 3 -p ping -e 64 -c 1 -i 1 -a 1 -x {0.0 5.0 -1 ------- null}
+ -t 0.36536 -s 3 -d 4 -p ping -e 64 -c 1 -i 1 -a 1 -x {0.0 5.0 -1 ------- null}
- -t 0.36536 -s 3 -d 4 -p ping -e 64 -c 1 -i 1 -a 1 -x {0.0 5.0 -1 ------- null}
h -t 0.36536 -s 3 -d 4 -p ping -e 64 -c 1 -i 1 -a 1 -x {0.0 5.0 -1 ------- null}
r -t 0.3756 -s 4 -d 5 -p ping -e 64 -c 1 -i 0 -a 1 -x {0.0 5.0 -1 ------- null}
+ -t 0.3756 -s 5 -d 4 -p ping -e 64 -c 2 -i 6 -a 2 -x {5.0 0.0 -1 ------- null}
- -t 0.3756 -s 5 -d 4 -p ping -e 64 -c 2 -i 6 -a 2 -x {5.0 0.0 -1 ------- null}
h -t 0.3756 -s 5 -d 4 -p ping -e 64 -c 2 -i 6 -a 2 -x {5.0 0.0 -1 ------- null}
+ -t 0.4 -s 0 -d 1 -p ping -e 64 -c 1 -i 7 -a 1 -x {0.0 5.0 -1 ------- null}
- -t 0.4 -s 0 -d 1 -p ping -e 64 -c 1 -i 7 -a 1 -x {0.0 5.0 -1 ------- null}
h -t 0.4 -s 0 -d 1 -p ping -e 64 -c 1 -i 7 -a 1 -x {0.0 5.0 -1 ------- null}
+ -t 0.4 -s 2 -d 3 -p tcp -e 40 -c 3 -i 8 -a 3 -x {2.0 4.0 0 ------- null}
- -t 0.4 -s 2 -d 3 -p tcp -e 40 -c 3 -i 8 -a 3 -x {2.0 4.0 0 ------- null}
h -t 0.4 -s 2 -d 3 -p tcp -e 40 -c 3 -i 8 -a 3 -x {2.0 4.0 -1 ------- null}
r -t 0.41024 -s 1 -d 2 -p ping -e 64 -c 1 -i 3 -a 1 -x {0.0 5.0 -1 ------- null}
+ -t 0.41024 -s 2 -d 3 -p ping -e 64 -c 1 -i 3 -a 1 -x {0.0 5.0 -1 ------- null}
- -t 0.41024 -s 2 -d 3 -p ping -e 64 -c 1 -i 3 -a 1 -x {0.0 5.0 -1 ------- null}
h -t 0.41024 -s 2 -d 3 -p ping -e 64 -c 1 -i 3 -a 1 -x {0.0 5.0 -1 ------- null}
r -t 0.4128 -s 2 -d 3 -p ack -e 40 -c 4 -i 5 -a 4 -x {1.0 3.0 0 ------- null}
+ -t 0.4128 -s 3 -d 2 -p tcp -e 1040 -c 4 -i 9 -a 4 -x {3.0 1.0 1 ------- null}
- -t 0.4128 -s 3 -d 2 -p tcp -e 1040 -c 4 -i 9 -a 4 -x {3.0 1.0 1 ------- null}
h -t 0.4128 -s 3 -d 2 -p tcp -e 1040 -c 4 -i 9 -a 4 -x {3.0 1.0 -1 ------- null}
+ -t 0.4128 -s 3 -d 2 -p tcp -e 1040 -c 4 -i 10 -a 4 -x {3.0 1.0 2 ------- null}
r -t 0.41536 -s 1 -d 2 -p ping -e 64 -c 1 -i 4 -a 1 -x {0.0 5.0 -1 ------- null}
+ -t 0.41536 -s 2 -d 3 -p ping -e 64 -c 1 -i 4 -a 1 -x {0.0 5.0 -1 ------- null}
- -t 0.41536 -s 2 -d 3 -p ping -e 64 -c 1 -i 4 -a 1 -x {0.0 5.0 -1 ------- null}
h -t 0.41536 -s 2 -d 3 -p ping -e 64 -c 1 -i 4 -a 1 -x {0.0 5.0 -1 ------- null}
r -t 0.42048 -s 3 -d 4 -p ping -e 64 -c 1 -i 1 -a 1 -x {0.0 5.0 -1 ------- null}
+ -t 0.42048 -s 4 -d 5 -p ping -e 64 -c 1 -i 1 -a 1 -x {0.0 5.0 -1 ------- null}
- -t 0.42048 -s 4 -d 5 -p ping -e 64 -c 1 -i 1 -a 1 -x {0.0 5.0 -1 ------- null}
h -t 0.42048 -s 4 -d 5 -p ping -e 64 -c 1 -i 1 -a 1 -x {0.0 5.0 -1 ------- null}
r -t 0.43072 -s 5 -d 4 -p ping -e 64 -c 2 -i 6 -a 2 -x {5.0 0.0 -1 ------- null}
+ -t 0.43072 -s 4 -d 3 -p ping -e 64 -c 2 -i 6 -a 2 -x {5.0 0.0 -1 ------- null}
- -t 0.43072 -s 4 -d 3 -p ping -e 64 -c 2 -i 6 -a 2 -x {5.0 0.0 -1 ------- null}
h -t 0.43072 -s 4 -d 3 -p ping -e 64 -c 2 -i 6 -a 2 -x {5.0 0.0 -1 ------- null}
r -t 0.4532 -s 2 -d 3 -p tcp -e 40 -c 3 -i 8 -a 3 -x {2.0 4.0 0 ------- null}
+ -t 0.4532 -s 3 -d 4 -p tcp -e 40 -c 3 -i 8 -a 3 -x {2.0 4.0 0 ------- null}
- -t 0.4532 -s 3 -d 4 -p tcp -e 40 -c 3 -i 8 -a 3 -x {2.0 4.0 0 ------- null}
h -t 0.4532 -s 3 -d 4 -p tcp -e 40 -c 3 -i 8 -a 3 -x {2.0 4.0 -1 ------- null}
r -t 0.45512 -s 0 -d 1 -p ping -e 64 -c 1 -i 7 -a 1 -x {0.0 5.0 -1 ------- null}
+ -t 0.45512 -s 1 -d 2 -p ping -e 64 -c 1 -i 7 -a 1 -x {0.0 5.0 -1 ------- null}
- -t 0.45512 -s 1 -d 2 -p ping -e 64 -c 1 -i 7 -a 1 -x {0.0 5.0 -1 ------- null}
h -t 0.45512 -s 1 -d 2 -p ping -e 64 -c 1 -i 7 -a 1 -x {0.0 5.0 -1 ------- null}
r -t 0.46536 -s 2 -d 3 -p ping -e 64 -c 1 -i 3 -a 1 -x {0.0 5.0 -1 ------- null}
+ -t 0.46536 -s 3 -d 4 -p ping -e 64 -c 1 -i 3 -a 1 -x {0.0 5.0 -1 ------- null}
- -t 0.46536 -s 3 -d 4 -p ping -e 64 -c 1 -i 3 -a 1 -x {0.0 5.0 -1 ------- null}
h -t 0.46536 -s 3 -d 4 -p ping -e 64 -c 1 -i 3 -a 1 -x {0.0 5.0 -1 ------- null}
r -t 0.47048 -s 2 -d 3 -p ping -e 64 -c 1 -i 4 -a 1 -x {0.0 5.0 -1 ------- null}
+ -t 0.47048 -s 3 -d 4 -p ping -e 64 -c 1 -i 4 -a 1 -x {0.0 5.0 -1 ------- null}
- -t 0.47048 -s 3 -d 4 -p ping -e 64 -c 1 -i 4 -a 1 -x {0.0 5.0 -1 ------- null}
h -t 0.47048 -s 3 -d 4 -p ping -e 64 -c 1 -i 4 -a 1 -x {0.0 5.0 -1 ------- null}
r -t 0.4756 -s 4 -d 5 -p ping -e 64 -c 1 -i 1 -a 1 -x {0.0 5.0 -1 ------- null}
+ -t 0.4756 -s 5 -d 4 -p ping -e 64 -c 2 -i 11 -a 2 -x {5.0 0.0 -1 ------- null}
- -t 0.4756 -s 5 -d 4 -p ping -e 64 -c 2 -i 11 -a 2 -x {5.0 0.0 -1 ------- null}
h -t 0.4756 -s 5 -d 4 -p ping -e 64 -c 2 -i 11 -a 2 -x {5.0 0.0 -1 ------- null}
r -t 0.48584 -s 4 -d 3 -p ping -e 64 -c 2 -i 6 -a 2 -x {5.0 0.0 -1 ------- null}
+ -t 0.48584 -s 3 -d 2 -p ping -e 64 -c 2 -i 6 -a 2 -x {5.0 0.0 -1 ------- null}
d -t 0.48584 -s 3 -d 2 -p ping -e 64 -c 2 -i 6 -a 2 -x {5.0 0.0 -1 ------- null}
- -t 0.496 -s 3 -d 2 -p tcp -e 1040 -c 4 -i 10 -a 4 -x {3.0 1.0 2 ------- null}
h -t 0.496 -s 3 -d 2 -p tcp -e 1040 -c 4 -i 10 -a 4 -x {3.0 1.0 -1 ------- null}
+ -t 0.5 -s 0 -d 1 -p ping -e 64 -c 1 -i 12 -a 1 -x {0.0 5.0 -1 ------- null}
- -t 0.5 -s 0 -d 1 -p ping -e 64 -c 1 -i 12 -a 1 -x {0.0 5.0 -1 ------- null}
h -t 0.5 -s 0 -d 1 -p ping -e 64 -c 1 -i 12 -a 1 -x {0.0 5.0 -1 ------- null}
r -t 0.5064 -s 3 -d 4 -p tcp -e 40 -c 3 -i 8 -a 3 -x {2.0 4.0 0 ------- null}
+ -t 0.5064 -s 4 -d 3 -p ack -e 40 -c 3 -i 13 -a 3 -x {4.0 2.0 0 ------- null}
- -t 0.5064 -s 4 -d 3 -p ack -e 40 -c 3 -i 13 -a 3 -x {4.0 2.0 0 ------- null}
h -t 0.5064 -s 4 -d 3 -p ack -e 40 -c 3 -i 13 -a 3 -x {4.0 2.0 -1 ------- null}
r -t 0.51024 -s 1 -d 2 -p ping -e 64 -c 1 -i 7 -a 1 -x {0.0 5.0 -1 ------- null}
+ -t 0.51024 -s 2 -d 3 -p ping -e 64 -c 1 -i 7 -a 1 -x {0.0 5.0 -1 ------- null}
- -t 0.51024 -s 2 -d 3 -p ping -e 64 -c 1 -i 7 -a 1 -x {0.0 5.0 -1 ------- null}
h -t 0.51024 -s 2 -d 3 -p ping -e 64 -c 1 -i 7 -a 1 -x {0.0 5.0 -1 ------- null}
r -t 0.52048 -s 3 -d 4 -p ping -e 64 -c 1 -i 3 -a 1 -x {0.0 5.0 -1 ------- null}
+ -t 0.52048 -s 4 -d 5 -p ping -e 64 -c 1 -i 3 -a 1 -x {0.0 5.0 -1 ------- null}
- -t 0.52048 -s 4 -d 5 -p ping -e 64 -c 1 -i 3 -a 1 -x {0.0 5.0 -1 ------- null}
h -t 0.52048 -s 4 -d 5 -p ping -e 64 -c 1 -i 3 -a 1 -x {0.0 5.0 -1 ------- null}
r -t 0.5256 -s 3 -d 4 -p ping -e 64 -c 1 -i 4 -a 1 -x {0.0 5.0 -1 ------- null}
+ -t 0.5256 -s 4 -d 5 -p ping -e 64 -c 1 -i 4 -a 1 -x {0.0 5.0 -1 ------- null}
- -t 0.5256 -s 4 -d 5 -p ping -e 64 -c 1 -i 4 -a 1 -x {0.0 5.0 -1 ------- null}
h -t 0.5256 -s 4 -d 5 -p ping -e 64 -c 1 -i 4 -a 1 -x {0.0 5.0 -1 ------- null}
r -t 0.53072 -s 5 -d 4 -p ping -e 64 -c 2 -i 11 -a 2 -x {5.0 0.0 -1 ------- null}
+ -t 0.53072 -s 4 -d 3 -p ping -e 64 -c 2 -i 11 -a 2 -x {5.0 0.0 -1 ------- null}
- -t 0.53072 -s 4 -d 3 -p ping -e 64 -c 2 -i 11 -a 2 -x {5.0 0.0 -1 ------- null}
h -t 0.53072 -s 4 -d 3 -p ping -e 64 -c 2 -i 11 -a 2 -x {5.0 0.0 -1 ------- null}
r -t 0.546 -s 3 -d 2 -p tcp -e 1040 -c 4 -i 9 -a 4 -x {3.0 1.0 1 ------- null}
+ -t 0.546 -s 2 -d 1 -p tcp -e 1040 -c 4 -i 9 -a 4 -x {3.0 1.0 1 ------- null}
- -t 0.546 -s 2 -d 1 -p tcp -e 1040 -c 4 -i 9 -a 4 -x {3.0 1.0 1 ------- null}
h -t 0.546 -s 2 -d 1 -p tcp -e 1040 -c 4 -i 9 -a 4 -x {3.0 1.0 -1 ------- null}
r -t 0.55512 -s 0 -d 1 -p ping -e 64 -c 1 -i 12 -a 1 -x {0.0 5.0 -1 ------- null}
+ -t 0.55512 -s 1 -d 2 -p ping -e 64 -c 1 -i 12 -a 1 -x {0.0 5.0 -1 ------- null}
- -t 0.55512 -s 1 -d 2 -p ping -e 64 -c 1 -i 12 -a 1 -x {0.0 5.0 -1 ------- null}
h -t 0.55512 -s 1 -d 2 -p ping -e 64 -c 1 -i 12 -a 1 -x {0.0 5.0 -1 ------- null}
r -t 0.5596 -s 4 -d 3 -p ack -e 40 -c 3 -i 13 -a 3 -x {4.0 2.0 0 ------- null}
+ -t 0.5596 -s 3 -d 2 -p ack -e 40 -c 3 -i 13 -a 3 -x {4.0 2.0 0 ------- null}
r -t 0.56536 -s 2 -d 3 -p ping -e 64 -c 1 -i 7 -a 1 -x {0.0 5.0 -1 ------- null}
+ -t 0.56536 -s 3 -d 4 -p ping -e 64 -c 1 -i 7 -a 1 -x {0.0 5.0 -1 ------- null}
- -t 0.56536 -s 3 -d 4 -p ping -e 64 -c 1 -i 7 -a 1 -x {0.0 5.0 -1 ------- null}
h -t 0.56536 -s 3 -d 4 -p ping -e 64 -c 1 -i 7 -a 1 -x {0.0 5.0 -1 ------- null}
r -t 0.5756 -s 4 -d 5 -p ping -e 64 -c 1 -i 3 -a 1 -x {0.0 5.0 -1 ------- null}
+ -t 0.5756 -s 5 -d 4 -p ping -e 64 -c 2 -i 14 -a 2 -x {5.0 0.0 -1 ------- null}
- -t 0.5756 -s 5 -d 4 -p ping -e 64 -c 2 -i 14 -a 2 -x {5.0 0.0 -1 ------- null}
h -t 0.5756 -s 5 -d 4 -p ping -e 64 -c 2 -i 14 -a 2 -x {5.0 0.0 -1 ------- null}
- -t 0.5792 -s 3 -d 2 -p ack -e 40 -c 3 -i 13 -a 3 -x {4.0 2.0 0 ------- null}
h -t 0.5792 -s 3 -d 2 -p ack -e 40 -c 3 -i 13 -a 3 -x {4.0 2.0 -1 ------- null}
r -t 0.58072 -s 4 -d 5 -p ping -e 64 -c 1 -i 4 -a 1 -x {0.0 5.0 -1 ------- null}
+ -t 0.58072 -s 5 -d 4 -p ping -e 64 -c 2 -i 15 -a 2 -x {5.0 0.0 -1 ------- null}
- -t 0.58072 -s 5 -d 4 -p ping -e 64 -c 2 -i 15 -a 2 -x {5.0 0.0 -1 ------- null}
h -t 0.58072 -s 5 -d 4 -p ping -e 64 -c 2 -i 15 -a 2 -x {5.0 0.0 -1 ------- null}
r -t 0.58584 -s 4 -d 3 -p ping -e 64 -c 2 -i 11 -a 2 -x {5.0 0.0 -1 ------- null}
+ -t 0.58584 -s 3 -d 2 -p ping -e 64 -c 2 -i 11 -a 2 -x {5.0 0.0 -1 ------- null}
- -t 0.58584 -s 3 -d 2 -p ping -e 64 -c 2 -i 11 -a 2 -x {5.0 0.0 -1 ------- null}
h -t 0.58584 -s 3 -d 2 -p ping -e 64 -c 2 -i 11 -a 2 -x {5.0 0.0 -1 ------- null}
+ -t 0.6 -s 0 -d 1 -p ping -e 64 -c 1 -i 16 -a 1 -x {0.0 5.0 -1 ------- null}
- -t 0.6 -s 0 -d 1 -p ping -e 64 -c 1 -i 16 -a 1 -x {0.0 5.0 -1 ------- null}
h -t 0.6 -s 0 -d 1 -p ping -e 64 -c 1 -i 16 -a 1 -x {0.0 5.0 -1 ------- null}
+ -t 0.6 -s 0 -d 1 -p ping -e 64 -c 1 -i 17 -a 1 -x {0.0 5.0 -1 ------- null}
+ -t 0.6 -s 0 -d 1 -p ping -e 64 -c 1 -i 18 -a 1 -x {0.0 5.0 -1 ------- null}
+ -t 0.6 -s 0 -d 1 -p ping -e 64 -c 1 -i 19 -a 1 -x {0.0 5.0 -1 ------- null}
+ -t 0.6 -s 0 -d 1 -p ping -e 64 -c 1 -i 20 -a 1 -x {0.0 5.0 -1 ------- null}
+ -t 0.6 -s 0 -d 1 -p ping -e 64 -c 1 -i 21 -a 1 -x {0.0 5.0 -1 ------- null}
+ -t 0.6 -s 0 -d 1 -p ping -e 64 -c 1 -i 22 -a 1 -x {0.0 5.0 -1 ------- null}
- -t 0.60512 -s 0 -d 1 -p ping -e 64 -c 1 -i 17 -a 1 -x {0.0 5.0 -1 ------- null}
h -t 0.60512 -s 0 -d 1 -p ping -e 64 -c 1 -i 17 -a 1 -x {0.0 5.0 -1 ------- null}
- -t 0.61024 -s 0 -d 1 -p ping -e 64 -c 1 -i 18 -a 1 -x {0.0 5.0 -1 ------- null}
h -t 0.61024 -s 0 -d 1 -p ping -e 64 -c 1 -i 18 -a 1 -x {0.0 5.0 -1 ------- null}
r -t 0.61024 -s 1 -d 2 -p ping -e 64 -c 1 -i 12 -a 1 -x {0.0 5.0 -1 ------- null}
+ -t 0.61024 -s 2 -d 3 -p ping -e 64 -c 1 -i 12 -a 1 -x {0.0 5.0 -1 ------- null}
- -t 0.61024 -s 2 -d 3 -p ping -e 64 -c 1 -i 12 -a 1 -x {0.0 5.0 -1 ------- null}
h -t 0.61024 -s 2 -d 3 -p ping -e 64 -c 1 -i 12 -a 1 -x {0.0 5.0 -1 ------- null}
- -t 0.61536 -s 0 -d 1 -p ping -e 64 -c 1 -i 19 -a 1 -x {0.0 5.0 -1 ------- null}
h -t 0.61536 -s 0 -d 1 -p ping -e 64 -c 1 -i 19 -a 1 -x {0.0 5.0 -1 ------- null}
- -t 0.62048 -s 0 -d 1 -p ping -e 64 -c 1 -i 20 -a 1 -x {0.0 5.0 -1 ------- null}
h -t 0.62048 -s 0 -d 1 -p ping -e 64 -c 1 -i 20 -a 1 -x {0.0 5.0 -1 ------- null}
r -t 0.62048 -s 3 -d 4 -p ping -e 64 -c 1 -i 7 -a 1 -x {0.0 5.0 -1 ------- null}
+ -t 0.62048 -s 4 -d 5 -p ping -e 64 -c 1 -i 7 -a 1 -x {0.0 5.0 -1 ------- null}
- -t 0.62048 -s 4 -d 5 -p ping -e 64 -c 1 -i 7 -a 1 -x {0.0 5.0 -1 ------- null}
h -t 0.62048 -s 4 -d 5 -p ping -e 64 -c 1 -i 7 -a 1 -x {0.0 5.0 -1 ------- null}
- -t 0.6256 -s 0 -d 1 -p ping -e 64 -c 1 -i 21 -a 1 -x {0.0 5.0 -1 ------- null}
h -t 0.6256 -s 0 -d 1 -p ping -e 64 -c 1 -i 21 -a 1 -x {0.0 5.0 -1 ------- null}
r -t 0.6292 -s 3 -d 2 -p tcp -e 1040 -c 4 -i 10 -a 4 -x {3.0 1.0 2 ------- null}
+ -t 0.6292 -s 2 -d 1 -p tcp -e 1040 -c 4 -i 10 -a 4 -x {3.0 1.0 2 ------- null}
- -t 0.6292 -s 2 -d 1 -p tcp -e 1040 -c 4 -i 10 -a 4 -x {3.0 1.0 2 ------- null}
h -t 0.6292 -s 2 -d 1 -p tcp -e 1040 -c 4 -i 10 -a 4 -x {3.0 1.0 -1 ------- null}
- -t 0.63072 -s 0 -d 1 -p ping -e 64 -c 1 -i 22 -a 1 -x {0.0 5.0 -1 ------- null}
h -t 0.63072 -s 0 -d 1 -p ping -e 64 -c 1 -i 22 -a 1 -x {0.0 5.0 -1 ------- null}
r -t 0.63072 -s 5 -d 4 -p ping -e 64 -c 2 -i 14 -a 2 -x {5.0 0.0 -1 ------- null}
+ -t 0.63072 -s 4 -d 3 -p ping -e 64 -c 2 -i 14 -a 2 -x {5.0 0.0 -1 ------- null}
- -t 0.63072 -s 4 -d 3 -p ping -e 64 -c 2 -i 14 -a 2 -x {5.0 0.0 -1 ------- null}
h -t 0.63072 -s 4 -d 3 -p ping -e 64 -c 2 -i 14 -a 2 -x {5.0 0.0 -1 ------- null}
r -t 0.6324 -s 3 -d 2 -p ack -e 40 -c 3 -i 13 -a 3 -x {4.0 2.0 0 ------- null}
+ -t 0.6324 -s 2 -d 3 -p tcp -e 1040 -c 3 -i 23 -a 3 -x {2.0 4.0 1 ------- null}
- -t 0.6324 -s 2 -d 3 -p tcp -e 1040 -c 3 -i 23 -a 3 -x {2.0 4.0 1 ------- null}
h -t 0.6324 -s 2 -d 3 -p tcp -e 1040 -c 3 -i 23 -a 3 -x {2.0 4.0 -1 ------- null}
+ -t 0.6324 -s 2 -d 3 -p tcp -e 1040 -c 3 -i 24 -a 3 -x {2.0 4.0 2 ------- null}
r -t 0.63584 -s 5 -d 4 -p ping -e 64 -c 2 -i 15 -a 2 -x {5.0 0.0 -1 ------- null}
+ -t 0.63584 -s 4 -d 3 -p ping -e 64 -c 2 -i 15 -a 2 -x {5.0 0.0 -1 ------- null}
- -t 0.63584 -s 4 -d 3 -p ping -e 64 -c 2 -i 15 -a 2 -x {5.0 0.0 -1 ------- null}
h -t 0.63584 -s 4 -d 3 -p ping -e 64 -c 2 -i 15 -a 2 -x {5.0 0.0 -1 ------- null}
r -t 0.64096 -s 3 -d 2 -p ping -e 64 -c 2 -i 11 -a 2 -x {5.0 0.0 -1 ------- null}
+ -t 0.64096 -s 2 -d 1 -p ping -e 64 -c 2 -i 11 -a 2 -x {5.0 0.0 -1 ------- null}
r -t 0.65512 -s 0 -d 1 -p ping -e 64 -c 1 -i 16 -a 1 -x {0.0 5.0 -1 ------- null}
+ -t 0.65512 -s 1 -d 2 -p ping -e 64 -c 1 -i 16 -a 1 -x {0.0 5.0 -1 ------- null}
- -t 0.65512 -s 1 -d 2 -p ping -e 64 -c 1 -i 16 -a 1 -x {0.0 5.0 -1 ------- null}
h -t 0.65512 -s 1 -d 2 -p ping -e 64 -c 1 -i 16 -a 1 -x {0.0 5.0 -1 ------- null}
r -t 0.66024 -s 0 -d 1 -p ping -e 64 -c 1 -i 17 -a 1 -x {0.0 5.0 -1 ------- null}
+ -t 0.66024 -s 1 -d 2 -p ping -e 64 -c 1 -i 17 -a 1 -x {0.0 5.0 -1 ------- null}
- -t 0.66024 -s 1 -d 2 -p ping -e 64 -c 1 -i 17 -a 1 -x {0.0 5.0 -1 ------- null}
h -t 0.66024 -s 1 -d 2 -p ping -e 64 -c 1 -i 17 -a 1 -x {0.0 5.0 -1 ------- null}
r -t 0.66536 -s 0 -d 1 -p ping -e 64 -c 1 -i 18 -a 1 -x {0.0 5.0 -1 ------- null}
+ -t 0.66536 -s 1 -d 2 -p ping -e 64 -c 1 -i 18 -a 1 -x {0.0 5.0 -1 ------- null}
- -t 0.66536 -s 1 -d 2 -p ping -e 64 -c 1 -i 18 -a 1 -x {0.0 5.0 -1 ------- null}
h -t 0.66536 -s 1 -d 2 -p ping -e 64 -c 1 -i 18 -a 1 -x {0.0 5.0 -1 ------- null}
r -t 0.66536 -s 2 -d 3 -p ping -e 64 -c 1 -i 12 -a 1 -x {0.0 5.0 -1 ------- null}
+ -t 0.66536 -s 3 -d 4 -p ping -e 64 -c 1 -i 12 -a 1 -x {0.0 5.0 -1 ------- null}
- -t 0.66536 -s 3 -d 4 -p ping -e 64 -c 1 -i 12 -a 1 -x {0.0 5.0 -1 ------- null}
h -t 0.66536 -s 3 -d 4 -p ping -e 64 -c 1 -i 12 -a 1 -x {0.0 5.0 -1 ------- null}
r -t 0.67048 -s 0 -d 1 -p ping -e 64 -c 1 -i 19 -a 1 -x {0.0 5.0 -1 ------- null}
+ -t 0.67048 -s 1 -d 2 -p ping -e 64 -c 1 -i 19 -a 1 -x {0.0 5.0 -1 ------- null}
- -t 0.67048 -s 1 -d 2 -p ping -e 64 -c 1 -i 19 -a 1 -x {0.0 5.0 -1 ------- null}
h -t 0.67048 -s 1 -d 2 -p ping -e 64 -c 1 -i 19 -a 1 -x {0.0 5.0 -1 ------- null}
r -t 0.6756 -s 0 -d 1 -p ping -e 64 -c 1 -i 20 -a 1 -x {0.0 5.0 -1 ------- null}
+ -t 0.6756 -s 1 -d 2 -p ping -e 64 -c 1 -i 20 -a 1 -x {0.0 5.0 -1 ------- null}
- -t 0.6756 -s 1 -d 2 -p ping -e 64 -c 1 -i 20 -a 1 -x {0.0 5.0 -1 ------- null}
h -t 0.6756 -s 1 -d 2 -p ping -e 64 -c 1 -i 20 -a 1 -x {0.0 5.0 -1 ------- null}
r -t 0.6756 -s 4 -d 5 -p ping -e 64 -c 1 -i 7 -a 1 -x {0.0 5.0 -1 ------- null}
+ -t 0.6756 -s 5 -d 4 -p ping -e 64 -c 2 -i 25 -a 2 -x {5.0 0.0 -1 ------- null}
- -t 0.6756 -s 5 -d 4 -p ping -e 64 -c 2 -i 25 -a 2 -x {5.0 0.0 -1 ------- null}
h -t 0.6756 -s 5 -d 4 -p ping -e 64 -c 2 -i 25 -a 2 -x {5.0 0.0 -1 ------- null}
r -t 0.6792 -s 2 -d 1 -p tcp -e 1040 -c 4 -i 9 -a 4 -x {3.0 1.0 1 ------- null}
+ -t 0.6792 -s 1 -d 2 -p ack -e 40 -c 4 -i 26 -a 4 -x {1.0 3.0 1 ------- null}
r -t 0.68072 -s 0 -d 1 -p ping -e 64 -c 1 -i 21 -a 1 -x {0.0 5.0 -1 ------- null}
+ -t 0.68072 -s 1 -d 2 -p ping -e 64 -c 1 -i 21 -a 1 -x {0.0 5.0 -1 ------- null}
- -t 0.68072 -s 1 -d 2 -p ack -e 40 -c 4 -i 26 -a 4 -x {1.0 3.0 1 ------- null}
h -t 0.68072 -s 1 -d 2 -p ack -e 40 -c 4 -i 26 -a 4 -x {1.0 3.0 -1 ------- null}
- -t 0.68392 -s 1 -d 2 -p ping -e 64 -c 1 -i 21 -a 1 -x {0.0 5.0 -1 ------- null}
h -t 0.68392 -s 1 -d 2 -p ping -e 64 -c 1 -i 21 -a 1 -x {0.0 5.0 -1 ------- null}
r -t 0.68584 -s 0 -d 1 -p ping -e 64 -c 1 -i 22 -a 1 -x {0.0 5.0 -1 ------- null}
+ -t 0.68584 -s 1 -d 2 -p ping -e 64 -c 1 -i 22 -a 1 -x {0.0 5.0 -1 ------- null}
r -t 0.68584 -s 4 -d 3 -p ping -e 64 -c 2 -i 14 -a 2 -x {5.0 0.0 -1 ------- null}
+ -t 0.68584 -s 3 -d 2 -p ping -e 64 -c 2 -i 14 -a 2 -x {5.0 0.0 -1 ------- null}
- -t 0.68584 -s 3 -d 2 -p ping -e 64 -c 2 -i 14 -a 2 -x {5.0 0.0 -1 ------- null}
h -t 0.68584 -s 3 -d 2 -p ping -e 64 -c 2 -i 14 -a 2 -x {5.0 0.0 -1 ------- null}
- -t 0.68904 -s 1 -d 2 -p ping -e 64 -c 1 -i 22 -a 1 -x {0.0 5.0 -1 ------- null}
h -t 0.68904 -s 1 -d 2 -p ping -e 64 -c 1 -i 22 -a 1 -x {0.0 5.0 -1 ------- null}
r -t 0.69096 -s 4 -d 3 -p ping -e 64 -c 2 -i 15 -a 2 -x {5.0 0.0 -1 ------- null}
+ -t 0.69096 -s 3 -d 2 -p ping -e 64 -c 2 -i 15 -a 2 -x {5.0 0.0 -1 ------- null}
- -t 0.69096 -s 3 -d 2 -p ping -e 64 -c 2 -i 15 -a 2 -x {5.0 0.0 -1 ------- null}
h -t 0.69096 -s 3 -d 2 -p ping -e 64 -c 2 -i 15 -a 2 -x {5.0 0.0 -1 ------- null}
+ -t 0.7 -s 0 -d 1 -p ping -e 64 -c 1 -i 27 -a 1 -x {0.0 5.0 -1 ------- null}
- -t 0.7 -s 0 -d 1 -p ping -e 64 -c 1 -i 27 -a 1 -x {0.0 5.0 -1 ------- null}
h -t 0.7 -s 0 -d 1 -p ping -e 64 -c 1 -i 27 -a 1 -x {0.0 5.0 -1 ------- null}
r -t 0.71024 -s 1 -d 2 -p ping -e 64 -c 1 -i 16 -a 1 -x {0.0 5.0 -1 ------- null}
+ -t 0.71024 -s 2 -d 3 -p ping -e 64 -c 1 -i 16 -a 1 -x {0.0 5.0 -1 ------- null}
d -t 0.71024 -s 2 -d 3 -p ping -e 64 -c 1 -i 16 -a 1 -x {0.0 5.0 -1 ------- null}
- -t 0.7124 -s 2 -d 1 -p ping -e 64 -c 2 -i 11 -a 2 -x {5.0 0.0 -1 ------- null}
h -t 0.7124 -s 2 -d 1 -p ping -e 64 -c 2 -i 11 -a 2 -x {5.0 0.0 -1 ------- null}
r -t 0.71536 -s 1 -d 2 -p ping -e 64 -c 1 -i 17 -a 1 -x {0.0 5.0 -1 ------- null}
+ -t 0.71536 -s 2 -d 3 -p ping -e 64 -c 1 -i 17 -a 1 -x {0.0 5.0 -1 ------- null}
d -t 0.71536 -s 2 -d 3 -p ping -e 64 -c 1 -i 17 -a 1 -x {0.0 5.0 -1 ------- null}
- -t 0.7156 -s 2 -d 3 -p tcp -e 1040 -c 3 -i 24 -a 3 -x {2.0 4.0 2 ------- null}
h -t 0.7156 -s 2 -d 3 -p tcp -e 1040 -c 3 -i 24 -a 3 -x {2.0 4.0 -1 ------- null}
r -t 0.72048 -s 1 -d 2 -p ping -e 64 -c 1 -i 18 -a 1 -x {0.0 5.0 -1 ------- null}
+ -t 0.72048 -s 2 -d 3 -p ping -e 64 -c 1 -i 18 -a 1 -x {0.0 5.0 -1 ------- null}
r -t 0.72048 -s 3 -d 4 -p ping -e 64 -c 1 -i 12 -a 1 -x {0.0 5.0 -1 ------- null}
+ -t 0.72048 -s 4 -d 5 -p ping -e 64 -c 1 -i 12 -a 1 -x {0.0 5.0 -1 ------- null}
- -t 0.72048 -s 4 -d 5 -p ping -e 64 -c 1 -i 12 -a 1 -x {0.0 5.0 -1 ------- null}
h -t 0.72048 -s 4 -d 5 -p ping -e 64 -c 1 -i 12 -a 1 -x {0.0 5.0 -1 ------- null}
r -t 0.7256 -s 1 -d 2 -p ping -e 64 -c 1 -i 19 -a 1 -x {0.0 5.0 -1 ------- null}
+ -t 0.7256 -s 2 -d 3 -p ping -e 64 -c 1 -i 19 -a 1 -x {0.0 5.0 -1 ------- null}
d -t 0.7256 -s 2 -d 3 -p ping -e 64 -c 1 -i 19 -a 1 -x {0.0 5.0 -1 ------- null}
r -t 0.73072 -s 1 -d 2 -p ping -e 64 -c 1 -i 20 -a 1 -x {0.0 5.0 -1 ------- null}
+ -t 0.73072 -s 2 -d 3 -p ping -e 64 -c 1 -i 20 -a 1 -x {0.0 5.0 -1 ------- null}
d -t 0.73072 -s 2 -d 3 -p ping -e 64 -c 1 -i 20 -a 1 -x {0.0 5.0 -1 ------- null}
r -t 0.73072 -s 5 -d 4 -p ping -e 64 -c 2 -i 25 -a 2 -x {5.0 0.0 -1 ------- null}
+ -t 0.73072 -s 4 -d 3 -p ping -e 64 -c 2 -i 25 -a 2 -x {5.0 0.0 -1 ------- null}
- -t 0.73072 -s 4 -d 3 -p ping -e 64 -c 2 -i 25 -a 2 -x {5.0 0.0 -1 ------- null}
h -t 0.73072 -s 4 -d 3 -p ping -e 64 -c 2 -i 25 -a 2 -x {5.0 0.0 -1 ------- null}
r -t 0.73392 -s 1 -d 2 -p ack -e 40 -c 4 -i 26 -a 4 -x {1.0 3.0 1 ------- null}
+ -t 0.73392 -s 2 -d 3 -p ack -e 40 -c 4 -i 26 -a 4 -x {1.0 3.0 1 ------- null}
d -t 0.73392 -s 2 -d 3 -p ack -e 40 -c 4 -i 26 -a 4 -x {1.0 3.0 1 ------- null}
r -t 0.73904 -s 1 -d 2 -p ping -e 64 -c 1 -i 21 -a 1 -x {0.0 5.0 -1 ------- null}
+ -t 0.73904 -s 2 -d 3 -p ping -e 64 -c 1 -i 21 -a 1 -x {0.0 5.0 -1 ------- null}
d -t 0.73904 -s 2 -d 3 -p ping -e 64 -c 1 -i 21 -a 1 -x {0.0 5.0 -1 ------- null}
r -t 0.74096 -s 3 -d 2 -p ping -e 64 -c 2 -i 14 -a 2 -x {5.0 0.0 -1 ------- null}
+ -t 0.74096 -s 2 -d 1 -p ping -e 64 -c 2 -i 14 -a 2 -x {5.0 0.0 -1 ------- null}
- -t 0.74096 -s 2 -d 1 -p ping -e 64 -c 2 -i 14 -a 2 -x {5.0 0.0 -1 ------- null}
h -t 0.74096 -s 2 -d 1 -p ping -e 64 -c 2 -i 14 -a 2 -x {5.0 0.0 -1 ------- null}
r -t 0.74416 -s 1 -d 2 -p ping -e 64 -c 1 -i 22 -a 1 -x {0.0 5.0 -1 ------- null}
+ -t 0.74416 -s 2 -d 3 -p ping -e 64 -c 1 -i 22 -a 1 -x {0.0 5.0 -1 ------- null}
d -t 0.74416 -s 2 -d 3 -p ping -e 64 -c 1 -i 22 -a 1 -x {0.0 5.0 -1 ------- null}
r -t 0.74608 -s 3 -d 2 -p ping -e 64 -c 2 -i 15 -a 2 -x {5.0 0.0 -1 ------- null}
+ -t 0.74608 -s 2 -d 1 -p ping -e 64 -c 2 -i 15 -a 2 -x {5.0 0.0 -1 ------- null}
- -t 0.74608 -s 2 -d 1 -p ping -e 64 -c 2 -i 15 -a 2 -x {5.0 0.0 -1 ------- null}
h -t 0.74608 -s 2 -d 1 -p ping -e 64 -c 2 -i 15 -a 2 -x {5.0 0.0 -1 ------- null}
r -t 0.75512 -s 0 -d 1 -p ping -e 64 -c 1 -i 27 -a 1 -x {0.0 5.0 -1 ------- null}
+ -t 0.75512 -s 1 -d 2 -p ping -e 64 -c 1 -i 27 -a 1 -x {0.0 5.0 -1 ------- null}
- -t 0.75512 -s 1 -d 2 -p ping -e 64 -c 1 -i 27 -a 1 -x {0.0 5.0 -1 ------- null}
h -t 0.75512 -s 1 -d 2 -p ping -e 64 -c 1 -i 27 -a 1 -x {0.0 5.0 -1 ------- null}
r -t 0.7624 -s 2 -d 1 -p tcp -e 1040 -c 4 -i 10 -a 4 -x {3.0 1.0 2 ------- null}
+ -t 0.7624 -s 1 -d 2 -p ack -e 40 -c 4 -i 28 -a 4 -x {1.0 3.0 2 ------- null}
- -t 0.7624 -s 1 -d 2 -p ack -e 40 -c 4 -i 28 -a 4 -x {1.0 3.0 2 ------- null}
h -t 0.7624 -s 1 -d 2 -p ack -e 40 -c 4 -i 28 -a 4 -x {1.0 3.0 -1 ------- null}
r -t 0.7656 -s 2 -d 3 -p tcp -e 1040 -c 3 -i 23 -a 3 -x {2.0 4.0 1 ------- null}
+ -t 0.7656 -s 3 -d 4 -p tcp -e 1040 -c 3 -i 23 -a 3 -x {2.0 4.0 1 ------- null}
- -t 0.7656 -s 3 -d 4 -p tcp -e 1040 -c 3 -i 23 -a 3 -x {2.0 4.0 1 ------- null}
h -t 0.7656 -s 3 -d 4 -p tcp -e 1040 -c 3 -i 23 -a 3 -x {2.0 4.0 -1 ------- null}
r -t 0.76752 -s 2 -d 1 -p ping -e 64 -c 2 -i 11 -a 2 -x {5.0 0.0 -1 ------- null}
+ -t 0.76752 -s 1 -d 0 -p ping -e 64 -c 2 -i 11 -a 2 -x {5.0 0.0 -1 ------- null}
- -t 0.76752 -s 1 -d 0 -p ping -e 64 -c 2 -i 11 -a 2 -x {5.0 0.0 -1 ------- null}
h -t 0.76752 -s 1 -d 0 -p ping -e 64 -c 2 -i 11 -a 2 -x {5.0 0.0 -1 ------- null}
r -t 0.7756 -s 4 -d 5 -p ping -e 64 -c 1 -i 12 -a 1 -x {0.0 5.0 -1 ------- null}
+ -t 0.7756 -s 5 -d 4 -p ping -e 64 -c 2 -i 29 -a 2 -x {5.0 0.0 -1 ------- null}
- -t 0.7756 -s 5 -d 4 -p ping -e 64 -c 2 -i 29 -a 2 -x {5.0 0.0 -1 ------- null}
h -t 0.7756 -s 5 -d 4 -p ping -e 64 -c 2 -i 29 -a 2 -x {5.0 0.0 -1 ------- null}
r -t 0.78584 -s 4 -d 3 -p ping -e 64 -c 2 -i 25 -a 2 -x {5.0 0.0 -1 ------- null}
+ -t 0.78584 -s 3 -d 2 -p ping -e 64 -c 2 -i 25 -a 2 -x {5.0 0.0 -1 ------- null}
- -t 0.78584 -s 3 -d 2 -p ping -e 64 -c 2 -i 25 -a 2 -x {5.0 0.0 -1 ------- null}
h -t 0.78584 -s 3 -d 2 -p ping -e 64 -c 2 -i 25 -a 2 -x {5.0 0.0 -1 ------- null}
r -t 0.79608 -s 2 -d 1 -p ping -e 64 -c 2 -i 14 -a 2 -x {5.0 0.0 -1 ------- null}
+ -t 0.79608 -s 1 -d 0 -p ping -e 64 -c 2 -i 14 -a 2 -x {5.0 0.0 -1 ------- null}
- -t 0.79608 -s 1 -d 0 -p ping -e 64 -c 2 -i 14 -a 2 -x {5.0 0.0 -1 ------- null}
h -t 0.79608 -s 1 -d 0 -p ping -e 64 -c 2 -i 14 -a 2 -x {5.0 0.0 -1 ------- null}
- -t 0.7988 -s 2 -d 3 -p ping -e 64 -c 1 -i 18 -a 1 -x {0.0 5.0 -1 ------- null}
h -t 0.7988 -s 2 -d 3 -p ping -e 64 -c 1 -i 18 -a 1 -x {0.0 5.0 -1 ------- null}
+ -t 0.8 -s 0 -d 1 -p ping -e 64 -c 1 -i 30 -a 1 -x {0.0 5.0 -1 ------- null}
- -t 0.8 -s 0 -d 1 -p ping -e 64 -c 1 -i 30 -a 1 -x {0.0 5.0 -1 ------- null}
h -t 0.8 -s 0 -d 1 -p ping -e 64 -c 1 -i 30 -a 1 -x {0.0 5.0 -1 ------- null}
r -t 0.8012 -s 2 -d 1 -p ping -e 64 -c 2 -i 15 -a 2 -x {5.0 0.0 -1 ------- null}
+ -t 0.8012 -s 1 -d 0 -p ping -e 64 -c 2 -i 15 -a 2 -x {5.0 0.0 -1 ------- null}
- -t 0.8012 -s 1 -d 0 -p ping -e 64 -c 2 -i 15 -a 2 -x {5.0 0.0 -1 ------- null}
h -t 0.8012 -s 1 -d 0 -p ping -e 64 -c 2 -i 15 -a 2 -x {5.0 0.0 -1 ------- null}
r -t 0.81024 -s 1 -d 2 -p ping -e 64 -c 1 -i 27 -a 1 -x {0.0 5.0 -1 ------- null}
+ -t 0.81024 -s 2 -d 3 -p ping -e 64 -c 1 -i 27 -a 1 -x {0.0 5.0 -1 ------- null}
- -t 0.81024 -s 2 -d 3 -p ping -e 64 -c 1 -i 27 -a 1 -x {0.0 5.0 -1 ------- null}
h -t 0.81024 -s 2 -d 3 -p ping -e 64 -c 1 -i 27 -a 1 -x {0.0 5.0 -1 ------- null}
r -t 0.8156 -s 1 -d 2 -p ack -e 40 -c 4 -i 28 -a 4 -x {1.0 3.0 2 ------- null}
+ -t 0.8156 -s 2 -d 3 -p ack -e 40 -c 4 -i 28 -a 4 -x {1.0 3.0 2 ------- null}
- -t 0.8156 -s 2 -d 3 -p ack -e 40 -c 4 -i 28 -a 4 -x {1.0 3.0 2 ------- null}