V -t * -v 1.0a5 -a 0
A -t * -n 1 -p 0 -o 0xffffffff -c 31 -a 1
A -t * -h 1 -m 2147483647 -s 0
c -t * -i 1 -n Blue
c -t * -i 2 -n Red
n -t * -a 4 -s 4 -S UP -v circle -c black -i black
n -t * -a 0 -s 0 -S UP -v circle -c black -i black
n -t * -a 5 -s 5 -S UP -v circle -c black -i black
n -t * -a 1 -s 1 -S UP -v circle -c black -i black
n -t * -a 2 -s 2 -S UP -v circle -c black -i black
n -t * -a 3 -s 3 -S UP -v circle -c black -i black
l -t * -s 0 -d 2 -S UP -r 10000000 -D 0.01 -c black -o right-down
l -t * -s 1 -d 2 -S UP -r 10000000 -D 0.01 -c black -o right-up
l -t * -s 2 -d 3 -S UP -r 500000 -D 0.10000000000000001 -c black -o right
X -t * -n 6 -r 10Mb -D 10ms -o left
L -t * -s 6 -d 3 -o up
L -t * -s 6 -d 4 -o down
L -t * -s 6 -d 5 -o up
+ -t 0.1 -s 0 -d 2 -p tcp -e 40 -c 1 -i 0 -a 1 -x {0.0 4.0 0 ------- null}
- -t 0.1 -s 0 -d 2 -p tcp -e 40 -c 1 -i 0 -a 1 -x {0.0 4.0 0 ------- null}
h -t 0.1 -s 0 -d 2 -p tcp -e 40 -c 1 -i 0 -a 1 -x {0.0 4.0 -1 ------- null}
r -t 0.110032 -s 0 -d 2 -p tcp -e 40 -c 1 -i 0 -a 1 -x {0.0 4.0 0 ------- null}
+ -t 0.110032 -s 2 -d 3 -p tcp -e 40 -c 1 -i 0 -a 1 -x {0.0 4.0 0 ------- null}
- -t 0.110032 -s 2 -d 3 -p tcp -e 40 -c 1 -i 0 -a 1 -x {0.0 4.0 0 ------- null}
h -t 0.110032 -s 2 -d 3 -p tcp -e 40 -c 1 -i 0 -a 1 -x {0.0 4.0 -1 ------- null}
h -t 0.2 -s 5 -d 6 -p tcp -e 40 -c 2 -i 1 -a 2 -x {5.0 1.0 0 ------- null}
+ -t 0.21 -s 5 -d 6 -p tcp -e 40 -c 2 -i 1 -a 2 -x {5.0 1.0 0 ------- null}
- -t 0.21 -s 5 -d 6 -p tcp -e 40 -c 2 -i 1 -a 2 -x {5.0 1.0 0 ------- null}
h -t 0.21 -s 5 -d 6 -p tcp -e 40 -c 2 -i 1 -a 2 -x {5.0 1.0 -1 ------- null}
r -t 0.210672 -s 2 -d 3 -p tcp -e 40 -c 1 -i 0 -a 1 -x {0.0 4.0 0 ------- null}
h -t 0.210672 -s 3 -d 6 -p tcp -e 40 -c 1 -i 0 -a 1 -x {0.0 4.0 0 ------- null}
r -t 0.2200552 -s 6 -d 3 -p tcp -e 40 -c 2 -i 1 -a 2 -x {5.0 1.0 0 ------- null}
+ -t 0.2200552 -s 3 -d 2 -p tcp -e 40 -c 2 -i 1 -a 2 -x {5.0 1.0 0 ------- null}
- -t 0.2200552 -s 3 -d 2 -p tcp -e 40 -c 2 -i 1 -a 2 -x {5.0 1.0 0 ------- null}
h -t 0.2200552 -s 3 -d 2 -p tcp -e 40 -c 2 -i 1 -a 2 -x {5.0 1.0 -1 ------- null}
+ -t 0.220672 -s 3 -d 6 -p tcp -e 40 -c 1 -i 0 -a 1 -x {0.0 4.0 0 ------- null}
- -t 0.220672 -s 3 -d 6 -p tcp -e 40 -c 1 -i 0 -a 1 -x {0.0 4.0 0 ------- null}
h -t 0.220672 -s 3 -d 6 -p tcp -e 40 -c 1 -i 0 -a 1 -x {0.0 4.0 -1 ------- null}
r -t 0.2307272 -s 6 -d 4 -p tcp -e 40 -c 1 -i 0 -a 1 -x {0.0 4.0 0 ------- null}
h -t 0.2307272 -s 4 -d 6 -p ack -e 40 -c 1 -i 2 -a 1 -x {4.0 0.0 0 ------- null}
+ -t 0.2407272 -s 4 -d 6 -p ack -e 40 -c 1 -i 2 -a 1 -x {4.0 0.0 0 ------- null}
- -t 0.2407272 -s 4 -d 6 -p ack -e 40 -c 1 -i 2 -a 1 -x {4.0 0.0 0 ------- null}
h -t 0.2407272 -s 4 -d 6 -p ack -e 40 -c 1 -i 2 -a 1 -x {4.0 0.0 -1 ------- null}
r -t 0.2507824 -s 6 -d 3 -p ack -e 40 -c 1 -i 2 -a 1 -x {4.0 0.0 0 ------- null}
+ -t 0.2507824 -s 3 -d 2 -p ack -e 40 -c 1 -i 2 -a 1 -x {4.0 0.0 0 ------- null}
- -t 0.2507824 -s 3 -d 2 -p ack -e 40 -c 1 -i 2 -a 1 -x {4.0 0.0 0 ------- null}
h -t 0.2507824 -s 3 -d 2 -p ack -e 40 -c 1 -i 2 -a 1 -x {4.0 0.0 -1 ------- null}
r -t 0.3206952 -s 3 -d 2 -p tcp -e 40 -c 2 -i 1 -a 2 -x {5.0 1.0 0 ------- null}
+ -t 0.3206952 -s 2 -d 1 -p tcp -e 40 -c 2 -i 1 -a 2 -x {5.0 1.0 0 ------- null}
- -t 0.3206952 -s 2 -d 1 -p tcp -e 40 -c 2 -i 1 -a 2 -x {5.0 1.0 0 ------- null}
h -t 0.3206952 -s 2 -d 1 -p tcp -e 40 -c 2 -i 1 -a 2 -x {5.0 1.0 -1 ------- null}
r -t 0.3307272 -s 2 -d 1 -p tcp -e 40 -c 2 -i 1 -a 2 -x {5.0 1.0 0 ------- null}
+ -t 0.3307272 -s 1 -d 2 -p ack -e 40 -c 2 -i 3 -a 2 -x {1.0 5.0 0 ------- null}
- -t 0.3307272 -s 1 -d 2 -p ack -e 40 -c 2 -i 3 -a 2 -x {1.0 5.0 0 ------- null}
h -t 0.3307272 -s 1 -d 2 -p ack -e 40 -c 2 -i 3 -a 2 -x {1.0 5.0 -1 ------- null}
r -t 0.3407592 -s 1 -d 2 -p ack -e 40 -c 2 -i 3 -a 2 -x {1.0 5.0 0 ------- null}
+ -t 0.3407592 -s 2 -d 3 -p ack -e 40 -c 2 -i 3 -a 2 -x {1.0 5.0 0 ------- null}
- -t 0.3407592 -s 2 -d 3 -p ack -e 40 -c 2 -i 3 -a 2 -x {1.0 5.0 0 ------- null}
h -t 0.3407592 -s 2 -d 3 -p ack -e 40 -c 2 -i 3 -a 2 -x {1.0 5.0 -1 ------- null}
r -t 0.3514224 -s 3 -d 2 -p ack -e 40 -c 1 -i 2 -a 1 -x {4.0 0.0 0 ------- null}
+ -t 0.3514224 -s 2 -d 0 -p ack -e 40 -c 1 -i 2 -a 1 -x {4.0 0.0 0 ------- null}
- -t 0.3514224 -s 2 -d 0 -p ack -e 40 -c 1 -i 2 -a 1 -x {4.0 0.0 0 ------- null}
h -t 0.3514224 -s 2 -d 0 -p ack -e 40 -c 1 -i 2 -a 1 -x {4.0 0.0 -1 ------- null}
r -t 0.3614544 -s 2 -d 0 -p ack -e 40 -c 1 -i 2 -a 1 -x {4.0 0.0 0 ------- null}
+ -t 0.3614544 -s 0 -d 2 -p tcp -e 1040 -c 1 -i 4 -a 1 -x {0.0 4.0 1 ------- null}
- -t 0.3614544 -s 0 -d 2 -p tcp -e 1040 -c 1 -i 4 -a 1 -x {0.0 4.0 1 ------- null}
h -t 0.3614544 -s 0 -d 2 -p tcp -e 1040 -c 1 -i 4 -a 1 -x {0.0 4.0 -1 ------- null}
+ -t 0.3614544 -s 0 -d 2 -p tcp -e 1040 -c 1 -i 5 -a 1 -x {0.0 4.0 2 ------- null}
- -t 0.3622864 -s 0 -d 2 -p tcp -e 1040 -c 1 -i 5 -a 1 -x {0.0 4.0 2 ------- null}
h -t 0.3622864 -s 0 -d 2 -p tcp -e 1040 -c 1 -i 5 -a 1 -x {0.0 4.0 -1 ------- null}
r -t 0.3722864 -s 0 -d 2 -p tcp -e 1040 -c 1 -i 4 -a 1 -x {0.0 4.0 1 ------- null}
+ -t 0.3722864 -s 2 -d 3 -p tcp -e 1040 -c 1 -i 4 -a 1 -x {0.0 4.0 1 ------- null}
- -t 0.3722864 -s 2 -d 3 -p tcp -e 1040 -c 1 -i 4 -a 1 -x {0.0 4.0 1 ------- null}
h -t 0.3722864 -s 2 -d 3 -p tcp -e 1040 -c 1 -i 4 -a 1 -x {0.0 4.0 -1 ------- null}
r -t 0.3731184 -s 0 -d 2 -p tcp -e 1040 -c 1 -i 5 -a 1 -x {0.0 4.0 2 ------- null}
+ -t 0.3731184 -s 2 -d 3 -p tcp -e 1040 -c 1 -i 5 -a 1 -x {0.0 4.0 2 ------- null}
- -t 0.3889264 -s 2 -d 3 -p tcp -e 1040 -c 1 -i 5 -a 1 -x {0.0 4.0 2 ------- null}
h -t 0.3889264 -s 2 -d 3 -p tcp -e 1040 -c 1 -i 5 -a 1 -x {0.0 4.0 -1 ------- null}
r -t 0.4413992 -s 2 -d 3 -p ack -e 40 -c 2 -i 3 -a 2 -x {1.0 5.0 0 ------- null}
h -t 0.4413992 -s 3 -d 6 -p ack -e 40 -c 2 -i 3 -a 2 -x {1.0 5.0 0 ------- null}
+ -t 0.4513992 -s 3 -d 6 -p ack -e 40 -c 2 -i 3 -a 2 -x {1.0 5.0 0 ------- null}
- -t 0.4513992 -s 3 -d 6 -p ack -e 40 -c 2 -i 3 -a 2 -x {1.0 5.0 0 ------- null}
h -t 0.4513992 -s 3 -d 6 -p ack -e 40 -c 2 -i 3 -a 2 -x {1.0 5.0 -1 ------- null}
r -t 0.4614544 -s 6 -d 5 -p ack -e 40 -c 2 -i 3 -a 2 -x {1.0 5.0 0 ------- null}
h -t 0.4614544 -s 5 -d 6 -p tcp -e 1040 -c 2 -i 6 -a 2 -x {5.0 1.0 1 ------- null}
h -t 0.4614544 -s 5 -d 6 -p tcp -e 1040 -c 2 -i 7 -a 2 -x {5.0 1.0 2 ------- null}
+ -t 0.4714544 -s 5 -d 6 -p tcp -e 1040 -c 2 -i 6 -a 2 -x {5.0 1.0 1 ------- null}
- -t 0.4714544 -s 5 -d 6 -p tcp -e 1040 -c 2 -i 6 -a 2 -x {5.0 1.0 1 ------- null}
h -t 0.4714544 -s 5 -d 6 -p tcp -e 1040 -c 2 -i 6 -a 2 -x {5.0 1.0 -1 ------- null}
+ -t 0.4714544 -s 5 -d 6 -p tcp -e 1040 -c 2 -i 7 -a 2 -x {5.0 1.0 2 ------- null}
- -t 0.4723072 -s 5 -d 6 -p tcp -e 1040 -c 2 -i 7 -a 2 -x {5.0 1.0 2 ------- null}
h -t 0.4723072 -s 5 -d 6 -p tcp -e 1040 -c 2 -i 7 -a 2 -x {5.0 1.0 -1 ------- null}
r -t 0.4823016 -s 6 -d 3 -p tcp -e 1040 -c 2 -i 6 -a 2 -x {5.0 1.0 1 ------- null}
+ -t 0.4823016 -s 3 -d 2 -p tcp -e 1040 -c 2 -i 6 -a 2 -x {5.0 1.0 1 ------- null}
- -t 0.4823016 -s 3 -d 2 -p tcp -e 1040 -c 2 -i 6 -a 2 -x {5.0 1.0 1 ------- null}
h -t 0.4823016 -s 3 -d 2 -p tcp -e 1040 -c 2 -i 6 -a 2 -x {5.0 1.0 -1 ------- null}
r -t 0.4831544 -s 6 -d 3 -p tcp -e 1040 -c 2 -i 7 -a 2 -x {5.0 1.0 2 ------- null}
+ -t 0.4831544 -s 3 -d 2 -p tcp -e 1040 -c 2 -i 7 -a 2 -x {5.0 1.0 2 ------- null}
r -t 0.4889264 -s 2 -d 3 -p tcp -e 1040 -c 1 -i 4 -a 1 -x {0.0 4.0 1 ------- null}
h -t 0.4889264 -s 3 -d 6 -p tcp -e 1040 -c 1 -i 4 -a 1 -x {0.0 4.0 1 ------- null}
+ -t 0.4989264 -s 3 -d 6 -p tcp -e 1040 -c 1 -i 4 -a 1 -x {0.0 4.0 1 ------- null}
- -t 0.4989264 -s 3 -d 6 -p tcp -e 1040 -c 1 -i 4 -a 1 -x {0.0 4.0 1 ------- null}
h -t 0.4989264 -s 3 -d 6 -p tcp -e 1040 -c 1 -i 4 -a 1 -x {0.0 4.0 -1 ------- null}
- -t 0.4989416 -s 3 -d 2 -p tcp -e 1040 -c 2 -i 7 -a 2 -x {5.0 1.0 2 ------- null}
h -t 0.4989416 -s 3 -d 2 -p tcp -e 1040 -c 2 -i 7 -a 2 -x {5.0 1.0 -1 ------- null}
r -t 0.5055664 -s 2 -d 3 -p tcp -e 1040 -c 1 -i 5 -a 1 -x {0.0 4.0 2 ------- null}
h -t 0.5055664 -s 3 -d 6 -p tcp -e 1040 -c 1 -i 5 -a 1 -x {0.0 4.0 2 ------- null}
r -t 0.5097736 -s 6 -d 4 -p tcp -e 1040 -c 1 -i 4 -a 1 -x {0.0 4.0 1 ------- null}
h -t 0.5097736 -s 4 -d 6 -p ack -e 40 -c 1 -i 8 -a 1 -x {4.0 0.0 1 ------- null}
+ -t 0.5155664 -s 3 -d 6 -p tcp -e 1040 -c 1 -i 5 -a 1 -x {0.0 4.0 2 ------- null}
- -t 0.5155664 -s 3 -d 6 -p tcp -e 1040 -c 1 -i 5 -a 1 -x {0.0 4.0 2 ------- null}
h -t 0.5155664 -s 3 -d 6 -p tcp -e 1040 -c 1 -i 5 -a 1 -x {0.0 4.0 -1 ------- null}
+ -t 0.5197736 -s 4 -d 6 -p ack -e 40 -c 1 -i 8 -a 1 -x {4.0 0.0 1 ------- null}
- -t 0.5197736 -s 4 -d 6 -p ack -e 40 -c 1 -i 8 -a 1 -x {4.0 0.0 1 ------- null}
h -t 0.5197736 -s 4 -d 6 -p ack -e 40 -c 1 -i 8 -a 1 -x {4.0 0.0 -1 ------- null}
r -t 0.5264136 -s 6 -d 4 -p tcp -e 1040 -c 1 -i 5 -a 1 -x {0.0 4.0 2 ------- null}
h -t 0.5264136 -s 4 -d 6 -p ack -e 40 -c 1 -i 9 -a 1 -x {4.0 0.0 2 ------- null}
r -t 0.5298288 -s 6 -d 3 -p ack -e 40 -c 1 -i 8 -a 1 -x {4.0 0.0 1 ------- null}
+ -t 0.5298288 -s 3 -d 2 -p ack -e 40 -c 1 -i 8 -a 1 -x {4.0 0.0 1 ------- null}
- -t 0.5298288 -s 3 -d 2 -p ack -e 40 -c 1 -i 8 -a 1 -x {4.0 0.0 1 ------- null}
h -t 0.5298288 -s 3 -d 2 -p ack -e 40 -c 1 -i 8 -a 1 -x {4.0 0.0 -1 ------- null}
+ -t 0.5364136 -s 4 -d 6 -p ack -e 40 -c 1 -i 9 -a 1 -x {4.0 0.0 2 ------- null}
- -t 0.5364136 -s 4 -d 6 -p ack -e 40 -c 1 -i 9 -a 1 -x {4.0 0.0 2 ------- null}
h -t 0.5364136 -s 4 -d 6 -p ack -e 40 -c 1 -i 9 -a 1 -x {4.0 0.0 -1 ------- null}
r -t 0.5464688 -s 6 -d 3 -p ack -e 40 -c 1 -i 9 -a 1 -x {4.0 0.0 2 ------- null}
+ -t 0.5464688 -s 3 -d 2 -p ack -e 40 -c 1 -i 9 -a 1 -x {4.0 0.0 2 ------- null}
- -t 0.5464688 -s 3 -d 2 -p ack -e 40 -c 1 -i 9 -a 1 -x {4.0 0.0 2 ------- null}
h -t 0.5464688 -s 3 -d 2 -p ack -e 40 -c 1 -i 9 -a 1 -x {4.0 0.0 -1 ------- null}
r -t 0.5989416 -s 3 -d 2 -p tcp -e 1040 -c 2 -i 6 -a 2 -x {5.0 1.0 1 ------- null}
+ -t 0.5989416 -s 2 -d 1 -p tcp -e 1040 -c 2 -i 6 -a 2 -x {5.0 1.0 1 ------- null}
- -t 0.5989416 -s 2 -d 1 -p tcp -e 1040 -c 2 -i 6 -a 2 -x {5.0 1.0 1 ------- null}
h -t 0.5989416 -s 2 -d 1 -p tcp -e 1040 -c 2 -i 6 -a 2 -x {5.0 1.0 -1 ------- null}
r -t 0.6097736 -s 2 -d 1 -p tcp -e 1040 -c 2 -i 6 -a 2 -x {5.0 1.0 1 ------- null}
+ -t 0.6097736 -s 1 -d 2 -p ack -e 40 -c 2 -i 10 -a 2 -x {1.0 5.0 1 ------- null}
- -t 0.6097736 -s 1 -d 2 -p ack -e 40 -c 2 -i 10 -a 2 -x {1.0 5.0 1 ------- null}
h -t 0.6097736 -s 1 -d 2 -p ack -e 40 -c 2 -i 10 -a 2 -x {1.0 5.0 -1 ------- null}
r -t 0.6155816 -s 3 -d 2 -p tcp -e 1040 -c 2 -i 7 -a 2 -x {5.0 1.0 2 ------- null}
+ -t 0.6155816 -s 2 -d 1 -p tcp -e 1040 -c 2 -i 7 -a 2 -x {5.0 1.0 2 ------- null}
- -t 0.6155816 -s 2 -d 1 -p tcp -e 1040 -c 2 -i 7 -a 2 -x {5.0 1.0 2 ------- null}
h -t 0.6155816 -s 2 -d 1 -p tcp -e 1040 -c 2 -i 7 -a 2 -x {5.0 1.0 -1 ------- null}
r -t 0.6198056 -s 1 -d 2 -p ack -e 40 -c 2 -i 10 -a 2 -x {1.0 5.0 1 ------- null}
+ -t 0.6198056 -s 2 -d 3 -p ack -e 40 -c 2 -i 10 -a 2 -x {1.0 5.0 1 ------- null}
- -t 0.6198056 -s 2 -d 3 -p ack -e 40 -c 2 -i 10 -a 2 -x {1.0 5.0 1 ------- null}
h -t 0.6198056 -s 2 -d 3 -p ack -e 40 -c 2 -i 10 -a 2 -x {1.0 5.0 -1 ------- null}
r -t 0.6264136 -s 2 -d 1 -p tcp -e 1040 -c 2 -i 7 -a 2 -x {5.0 1.0 2 ------- null}
+ -t 0.6264136 -s 1 -d 2 -p ack -e 40 -c 2 -i 11 -a 2 -x {1.0 5.0 2 ------- null}
- -t 0.6264136 -s 1 -d 2 -p ack -e 40 -c 2 -i 11 -a 2 -x {1.0 5.0 2 ------- null}
h -t 0.6264136 -s 1 -d 2 -p ack -e 40 -c 2 -i 11 -a 2 -x {1.0 5.0 -1 ------- null}
r -t 0.6304688 -s 3 -d 2 -p ack -e 40 -c 1 -i 8 -a 1 -x {4.0 0.0 1 ------- null}
+ -t 0.6304688 -s 2 -d 0 -p ack -e 40 -c 1 -i 8 -a 1 -x {4.0 0.0 1 ------- null}
- -t 0.6304688 -s 2 -d 0 -p ack -e 40 -c 1 -i 8 -a 1 -x {4.0 0.0 1 ------- null}
h -t 0.6304688 -s 2 -d 0 -p ack -e 40 -c 1 -i 8 -a 1 -x {4.0 0.0 -1 ------- null}
r -t 0.6364456 -s 1 -d 2 -p ack -e 40 -c 2 -i 11 -a 2 -x {1.0 5.0 2 ------- null}
+ -t 0.6364456 -s 2 -d 3 -p ack -e 40 -c 2 -i 11 -a 2 -x {1.0 5.0 2 ------- null}
- -t 0.6364456 -s 2 -d 3 -p ack -e 40 -c 2 -i 11 -a 2 -x {1.0 5.0 2 ------- null}
h -t 0.6364456 -s 2 -d 3 -p ack -e 40 -c 2 -i 11 -a 2 -x {1.0 5.0 -1 ------- null}
r -t 0.6405008 -s 2 -d 0 -p ack -e 40 -c 1 -i 8 -a 1 -x {4.0 0.0 1 ------- null}
+ -t 0.6405008 -s 0 -d 2 -p tcp -e 1040 -c 1 -i 12 -a 1 -x {0.0 4.0 3 ------- null}
- -t 0.6405008 -s 0 -d 2 -p tcp -e 1040 -c 1 -i 12 -a 1 -x {0.0 4.0 3 ------- null}
h -t 0.6405008 -s 0 -d 2 -p tcp -e 1040 -c 1 -i 12 -a 1 -x {0.0 4.0 -1 ------- null}
+ -t 0.6405008 -s 0 -d 2 -p tcp -e 1040 -c 1 -i 13 -a 1 -x {0.0 4.0 4 ------- null}
- -t 0.6413328 -s 0 -d 2 -p tcp -e 1040 -c 1 -i 13 -a 1 -x {0.0 4.0 4 ------- null}
h -t 0.6413328 -s 0 -d 2 -p tcp -e 1040 -c 1 -i 13 -a 1 -x {0.0 4.0 -1 ------- null}
r -t 0.6471088 -s 3 -d 2 -p ack -e 40 -c 1 -i 9 -a 1 -x {4.0 0.0 2 ------- null}
+ -t 0.6471088 -s 2 -d 0 -p ack -e 40 -c 1 -i 9 -a 1 -x {4.0 0.0 2 ------- null}
- -t 0.6471088 -s 2 -d 0 -p ack -e 40 -c 1 -i 9 -a 1 -x {4.0 0.0 2 ------- null}
h -t 0.6471088 -s 2 -d 0 -p ack -e 40 -c 1 -i 9 -a 1 -x {4.0 0.0 -1 ------- null}
r -t 0.6513328 -s 0 -d 2 -p tcp -e 1040 -c 1 -i 12 -a 1 -x {0.0 4.0 3 ------- null}
+ -t 0.6513328 -s 2 -d 3 -p tcp -e 1040 -c 1 -i 12 -a 1 -x {0.0 4.0 3 ------- null}
- -t 0.6513328 -s 2 -d 3 -p tcp -e 1040 -c 1 -i 12 -a 1 -x {0.0 4.0 3 ------- null}
h -t 0.6513328 -s 2 -d 3 -p tcp -e 1040 -c 1 -i 12 -a 1 -x {0.0 4.0 -1 ------- null}
r -t 0.6521648 -s 0 -d 2 -p tcp -e 1040 -c 1 -i 13 -a 1 -x {0.0 4.0 4 ------- null}
+ -t 0.6521648 -s 2 -d 3 -p tcp -e 1040 -c 1 -i 13 -a 1 -x {0.0 4.0 4 ------- null}
r -t 0.6571408 -s 2 -d 0 -p ack -e 40 -c 1 -i 9 -a 1 -x {4.0 0.0 2 ------- null}
+ -t 0.6571408 -s 0 -d 2 -p tcp -e 1040 -c 1 -i 14 -a 1 -x {0.0 4.0 5 ------- null}
- -t 0.6571408 -s 0 -d 2 -p tcp -e 1040 -c 1 -i 14 -a 1 -x {0.0 4.0 5 ------- null}
h -t 0.6571408 -s 0 -d 2 -p tcp -e 1040 -c 1 -i 14 -a 1 -x {0.0 4.0 -1 ------- null}
+ -t 0.6571408 -s 0 -d 2 -p tcp -e 1040 -c 1 -i 15 -a 1 -x {0.0 4.0 6 ------- null}
- -t 0.6579728 -s 0 -d 2 -p tcp -e 1040 -c 1 -i 15 -a 1 -x {0.0 4.0 6 ------- null}
h -t 0.6579728 -s 0 -d 2 -p tcp -e 1040 -c 1 -i 15 -a 1 -x {0.0 4.0 -1 ------- null}
- -t 0.6679728 -s 2 -d 3 -p tcp -e 1040 -c 1 -i 13 -a 1 -x {0.0 4.0 4 ------- null}
h -t 0.6679728 -s 2 -d 3 -p tcp -e 1040 -c 1 -i 13 -a 1 -x {0.0 4.0 -1 ------- null}
r -t 0.6679728 -s 0 -d 2 -p tcp -e 1040 -c 1 -i 14 -a 1 -x {0.0 4.0 5 ------- null}
+ -t 0.6679728 -s 2 -d 3 -p tcp -e 1040 -c 1 -i 14 -a 1 -x {0.0 4.0 5 ------- null}
r -t 0.6688048 -s 0 -d 2 -p tcp -e 1040 -c 1 -i 15 -a 1 -x {0.0 4.0 6 ------- null}
+ -t 0.6688048 -s 2 -d 3 -p tcp -e 1040 -c 1 -i 15 -a 1 -x {0.0 4.0 6 ------- null}
- -t 0.6846128 -s 2 -d 3 -p tcp -e 1040 -c 1 -i 14 -a 1 -x {0.0 4.0 5 ------- null}
h -t 0.6846128 -s 2 -d 3 -p tcp -e 1040 -c 1 -i 14 -a 1 -x {0.0 4.0 -1 ------- null}
- -t 0.7012528 -s 2 -d 3 -p tcp -e 1040 -c 1 -i 15 -a 1 -x {0.0 4.0 6 ------- null}
h -t 0.7012528 -s 2 -d 3 -p tcp -e 1040 -c 1 -i 15 -a 1 -x {0.0 4.0 -1 ------- null}
r -t 0.7204456 -s 2 -d 3 -p ack -e 40 -c 2 -i 10 -a 2 -x {1.0 5.0 1 ------- null}
h -t 0.7204456 -s 3 -d 6 -p ack -e 40 -c 2 -i 10 -a 2 -x {1.0 5.0 1 ------- null}
+ -t 0.7304456 -s 3 -d 6 -p ack -e 40 -c 2 -i 10 -a 2 -x {1.0 5.0 1 ------- null}
- -t 0.7304456 -s 3 -d 6 -p ack -e 40 -c 2 -i 10 -a 2 -x {1.0 5.0 1 ------- null}
h -t 0.7304456 -s 3 -d 6 -p ack -e 40 -c 2 -i 10 -a 2 -x {1.0 5.0 -1 ------- null}
r -t 0.7370856 -s 2 -d 3 -p ack -e 40 -c 2 -i 11 -a 2 -x {1.0 5.0 2 ------- null}
h -t 0.7370856 -s 3 -d 6 -p ack -e 40 -c 2 -i 11 -a 2 -x {1.0 5.0 2 ------- null}
r -t 0.7405008 -s 6 -d 5 -p ack -e 40 -c 2 -i 10 -a 2 -x {1.0 5.0 1 ------- null}
h -t 0.7405008 -s 5 -d 6 -p tcp -e 1040 -c 2 -i 16 -a 2 -x {5.0 1.0 3 ------- null}
h -t 0.7405008 -s 5 -d 6 -p tcp -e 1040 -c 2 -i 17 -a 2 -x {5.0 1.0 4 ------- null}
+ -t 0.7470856 -s 3 -d 6 -p ack -e 40 -c 2 -i 11 -a 2 -x {1.0 5.0 2 ------- null}
- -t 0.7470856 -s 3 -d 6 -p ack -e 40 -c 2 -i 11 -a 2 -x {1.0 5.0 2 ------- null}
h -t 0.7470856 -s 3 -d 6 -p ack -e 40 -c 2 -i 11 -a 2 -x {1.0 5.0 -1 ------- null}
+ -t 0.7505008 -s 5 -d 6 -p tcp -e 1040 -c 2 -i 16 -a 2 -x {5.0 1.0 3 ------- null}
- -t 0.7505008 -s 5 -d 6 -p tcp -e 1040 -c 2 -i 16 -a 2 -x {5.0 1.0 3 ------- null}
h -t 0.7505008 -s 5 -d 6 -p tcp -e 1040 -c 2 -i 16 -a 2 -x {5.0 1.0 -1 ------- null}
+ -t 0.7505008 -s 5 -d 6 -p tcp -e 1040 -c 2 -i 17 -a 2 -x {5.0 1.0 4 ------- null}
- -t 0.7513536 -s 5 -d 6 -p tcp -e 1040 -c 2 -i 17 -a 2 -x {5.0 1.0 4 ------- null}
h -t 0.7513536 -s 5 -d 6 -p tcp -e 1040 -c 2 -i 17 -a 2 -x {5.0 1.0 -1 ------- null}
r -t 0.7571408 -s 6 -d 5 -p ack -e 40 -c 2 -i 11 -a 2 -x {1.0 5.0 2 ------- null}
h -t 0.7571408 -s 5 -d 6 -p tcp -e 1040 -c 2 -i 18 -a 2 -x {5.0 1.0 5 ------- null}
h -t 0.7571408 -s 5 -d 6 -p tcp -e 1040 -c 2 -i 19 -a 2 -x {5.0 1.0 6 ------- null}
r -t 0.761348 -s 6 -d 3 -p tcp -e 1040 -c 2 -i 16 -a 2 -x {5.0 1.0 3 ------- null}
+ -t 0.761348 -s 3 -d 2 -p tcp -e 1040 -c 2 -i 16 -a 2 -x {5.0 1.0 3 ------- null}
- -t 0.761348 -s 3 -d 2 -p tcp -e 1040 -c 2 -i 16 -a 2 -x {5.0 1.0 3 ------- null}
h -t 0.761348 -s 3 -d 2 -p tcp -e 1040 -c 2 -i 16 -a 2 -x {5.0 1.0 -1 ------- null}
r -t 0.7622008 -s 6 -d 3 -p tcp -e 1040 -c 2 -i 17 -a 2 -x {5.0 1.0 4 ------- null}
+ -t 0.7622008 -s 3 -d 2 -p tcp -e 1040 -c 2 -i 17 -a 2 -x {5.0 1.0 4 ------- null}
+ -t 0.7671408 -s 5 -d 6 -p tcp -e 1040 -c 2 -i 18 -a 2 -x {5.0 1.0 5 ------- null}
- -t 0.7671408 -s 5 -d 6 -p tcp -e 1040 -c 2 -i 18 -a 2 -x {5.0 1.0 5 ------- null}
h -t 0.7671408 -s 5 -d 6 -p tcp -e 1040 -c 2 -i 18 -a 2 -x {5.0 1.0 -1 ------- null}
+ -t 0.7671408 -s 5 -d 6 -p tcp -e 1040 -c 2 -i 19 -a 2 -x {5.0 1.0 6 ------- null}
r -t 0.7679728 -s 2 -d 3 -p tcp -e 1040 -c 1 -i 12 -a 1 -x {0.0 4.0 3 ------- null}
h -t 0.7679728 -s 3 -d 6 -p tcp -e 1040 -c 1 -i 12 -a 1 -x {0.0 4.0 3 ------- null}
- -t 0.7679936 -s 5 -d 6 -p tcp -e 1040 -c 2 -i 19 -a 2 -x {5.0 1.0 6 ------- null}
h -t 0.7679936 -s 5 -d 6 -p tcp -e 1040 -c 2 -i 19 -a 2 -x {5.0 1.0 -1 ------- null}
+ -t 0.7779728 -s 3 -d 6 -p tcp -e 1040 -c 1 -i 12 -a 1 -x {0.0 4.0 3 ------- null}
- -t 0.7779728 -s 3 -d 6 -p tcp -e 1040 -c 1 -i 12 -a 1 -x {0.0 4.0 3 ------- null}
h -t 0.7779728 -s 3 -d 6 -p tcp -e 1040 -c 1 -i 12 -a 1 -x {0.0 4.0 -1 ------- null}
- -t 0.777988 -s 3 -d 2 -p tcp -e 1040 -c 2 -i 17 -a 2 -x {5.0 1.0 4 ------- null}
h -t 0.777988 -s 3 -d 2 -p tcp -e 1040 -c 2 -i 17 -a 2 -x {5.0 1.0 -1 ------- null}
r -t 0.777988 -s 6 -d 3 -p tcp -e 1040 -c 2 -i 18 -a 2 -x {5.0 1.0 5 ------- null}
+ -t 0.777988 -s 3 -d 2 -p tcp -e 1040 -c 2 -i 18 -a 2 -x {5.0 1.0 5 ------- null}
r -t 0.7788408 -s 6 -d 3 -p tcp -e 1040 -c 2 -i 19 -a 2 -x {5.0 1.0 6 ------- null}
+ -t 0.7788408 -s 3 -d 2 -p tcp -e 1040 -c 2 -i 19 -a 2 -x {5.0 1.0 6 ------- null}
r -t 0.7846128 -s 2 -d 3 -p tcp -e 1040 -c 1 -i 13 -a 1 -x {0.0 4.0 4 ------- null}
h -t 0.7846128 -s 3 -d 6 -p tcp -e 1040 -c 1 -i 13 -a 1 -x {0.0 4.0 4 ------- null}
r -t 0.78882 -s 6 -d 4 -p tcp -e 1040 -c 1 -i 12 -a 1 -x {0.0 4.0 3 ------- null}
h -t 0.78882 -s 4 -d 6 -p ack -e 40 -c 1 -i 20 -a 1 -x {4.0 0.0 3 ------- null}
+ -t 0.7946128 -s 3 -d 6 -p tcp -e 1040 -c 1 -i 13 -a 1 -x {0.0 4.0 4 ------- null}
- -t 0.7946128 -s 3 -d 6 -p tcp -e 1040 -c 1 -i 13 -a 1 -x {0.0 4.0 4 ------- null}
h -t 0.7946128 -s 3 -d 6 -p tcp -e 1040 -c 1 -i 13 -a 1 -x {0.0 4.0 -1 ------- null}
- -t 0.794628 -s 3 -d 2 -p tcp -e 1040 -c 2 -i 18 -a 2 -x {5.0 1.0 5 ------- null}
h -t 0.794628 -s 3 -d 2 -p tcp -e 1040 -c 2 -i 18 -a 2 -x {5.0 1.0 -1 ------- null}
+ -t 0.79882 -s 4 -d 6 -p ack -e 40 -c 1 -i 20 -a 1 -x {4.0 0.0 3 ------- null}
- -t 0.79882 -s 4 -d 6 -p ack -e 40 -c 1 -i 20 -a 1 -x {4.0 0.0 3 ------- null}
h -t 0.79882 -s 4 -d 6 -p ack -e 40 -c 1 -i 20 -a 1 -x {4.0 0.0 -1 ------- null}
r -t 0.8012528 -s 2 -d 3 -p tcp -e 1040 -c 1 -i 14 -a 1 -x {0.0 4.0 5 ------- null}
h -t 0.8012528 -s 3 -d 6 -p tcp -e 1040 -c 1 -i 14 -a 1 -x {0.0 4.0 5 ------- null}
r -t 0.80546 -s 6 -d 4 -p tcp -e 1040 -c 1 -i 13 -a 1 -x {0.0 4.0 4 ------- null}
h -t 0.80546 -s 4 -d 6 -p ack -e 40 -c 1 -i 21 -a 1 -x {4.0 0.0 4 ------- null}
r -t 0.8088752 -s 6 -d 3 -p ack -e 40 -c 1 -i 20 -a 1 -x {4.0 0.0 3 ------- null}
+ -t 0.8088752 -s 3 -d 2 -p ack -e 40 -c 1 -i 20 -a 1 -x {4.0 0.0 3 ------- null}
+ -t 0.8112528 -s 3 -d 6 -p tcp -e 1040 -c 1 -i 14 -a 1 -x {0.0 4.0 5 ------- null}
- -t 0.8112528 -s 3 -d 6 -p tcp -e 1040 -c 1 -i 14 -a 1 -x {0.0 4.0 5 ------- null}
h -t 0.8112528 -s 3 -d 6 -p tcp -e 1040 -c 1 -i 14 -a 1 -x {0.0 4.0 -1 ------- null}
- -t 0.811268 -s 3 -d 2 -p tcp -e 1040 -c 2 -i 19 -a 2 -x {5.0 1.0 6 ------- null}
h -t 0.811268 -s 3 -d 2 -p tcp -e 1040 -c 2 -i 19 -a 2 -x {5.0 1.0 -1 ------- null}
+ -t 0.81546 -s 4 -d 6 -p ack -e 40 -c 1 -i 21 -a 1 -x {4.0 0.0 4 ------- null}
- -t 0.81546 -s 4 -d 6 -p ack -e 40 -c 1 -i 21 -a 1 -x {4.0 0.0 4 ------- null}
h -t 0.81546 -s 4 -d 6 -p ack -e 40 -c 1 -i 21 -a 1 -x {4.0 0.0 -1 ------- null}
r -t 0.8178928 -s 2 -d 3 -p tcp -e 1040 -c 1 -i 15 -a 1 -x {0.0 4.0 6 ------- null}
h -t 0.8178928 -s 3 -d 6 -p tcp -e 1040 -c 1 -i 15 -a 1 -x {0.0 4.0 6 ------- null}
r -t 0.8221 -s 6 -d 4 -p tcp -e 1040 -c 1 -i 14 -a 1 -x {0.0 4.0 5 ------- null}
h -t 0.8221 -s 4 -d 6 -p ack -e 40 -c 1 -i 22 -a 1 -x {4.0 0.0 5 ------- null}
r -t 0.8255152 -s 6 -d 3 -p ack -e 40 -c 1 -i 21 -a 1 -x {4.0 0.0 4 ------- null}
+ -t 0.8255152 -s 3 -d 2 -p ack -e 40 -c 1 -i 21 -a 1 -x {4.0 0.0 4 ------- null}
+ -t 0.8278928 -s 3 -d 6 -p tcp -e 1040 -c 1 -i 15 -a 1 -x {0.0 4.0 6 ------- null}
- -t 0.8278928 -s 3 -d 6 -p tcp -e 1040 -c 1 -i 15 -a 1 -x {0.0 4.0 6 ------- null}
h -t 0.8278928 -s 3 -d 6 -p tcp -e 1040 -c 1 -i 15 -a 1 -x {0.0 4.0 -1 ------- null}
- -t 0.827908 -s 3 -d 2 -p ack -e 40 -c 1 -i 20 -a 1 -x {4.0 0.0 3 ------- null}
h -t 0.827908 -s 3 -d 2 -p ack -e 40 -c 1 -i 20 -a 1 -x {4.0 0.0 -1 ------- null}
- -t 0.828548 -s 3 -d 2 -p ack -e 40 -c 1 -i 21 -a 1 -x {4.0 0.0 4 ------- null}
h -t 0.828548 -s 3 -d 2 -p ack -e 40 -c 1 -i 21 -a 1 -x {4.0 0.0 -1 ------- null}
+ -t 0.8321 -s 4 -d 6 -p ack -e 40 -c 1 -i 22 -a 1 -x {4.0 0.0 5 ------- null}
- -t 0.8321 -s 4 -d 6 -p ack -e 40 -c 1 -i 22 -a 1 -x {4.0 0.0 5 ------- null}
h -t 0.8321 -s 4 -d 6 -p ack -e 40 -c 1 -i 22 -a 1 -x {4.0 0.0 -1 ------- null}
r -t 0.83874 -s 6 -d 4 -p tcp -e 1040 -c 1 -i 15 -a 1 -x {0.0 4.0 6 ------- null}
h -t 0.83874 -s 4 -d 6 -p ack -e 40 -c 1 -i 23 -a 1 -x {4.0 0.0 6 ------- null}
r -t 0.8421552 -s 6 -d 3 -p ack -e 40 -c 1 -i 22 -a 1 -x {4.0 0.0 5 ------- null}
+ -t 0.8421552 -s 3 -d 2 -p ack -e 40 -c 1 -i 22 -a 1 -x {4.0 0.0 5 ------- null}
- -t 0.8421552 -s 3 -d 2 -p ack -e 40 -c 1 -i 22 -a 1 -x {4.0 0.0 5 ------- null}
h -t 0.8421552 -s 3 -d 2 -p ack -e 40 -c 1 -i 22 -a 1 -x {4.0 0.0 -1 ------- null}
+ -t 0.84874 -s 4 -d 6 -p ack -e 40 -c 1 -i 23 -a 1 -x {4.0 0.0 6 ------- null}
- -t 0.84874 -s 4 -d 6 -p ack -e 40 -c 1 -i 23 -a 1 -x {4.0 0.0 6 ------- null}
h -t 0.84874 -s 4 -d 6 -p ack -e 40 -c 1 -i 23 -a 1 -x {4.0 0.0 -1 ------- null}
r -t 0.8587952 -s 6 -d 3 -p ack -e 40 -c 1 -i 23 -a 1 -x {4.0 0.0 6 ------- null}
+ -t 0.8587952 -s 3 -d 2 -p ack -e 40 -c 1 -i 23 -a 1 -x {4.0 0.0 6 ------- null}
- -t 0.8587952 -s 3 -d 2 -p ack -e 40 -c 1 -i 23 -a 1 -x {4.0 0.0 6 ------- null}
h -t 0.8587952 -s 3 -d 2 -p ack -e 40 -c 1 -i 23 -a 1 -x {4.0 0.0 -1 ------- null}
r -t 0.877988 -s 3 -d 2 -p tcp -e 1040 -c 2 -i 16 -a 2 -x {5.0 1.0 3 ------- null}
+ -t 0.877988 -s 2 -d 1 -p tcp -e 1040 -c 2 -i 16 -a 2 -x {5.0 1.0 3 ------- null}
- -t 0.877988 -s 2 -d 1 -p tcp -e 1040 -c 2 -i 16 -a 2 -x {5.0 1.0 3 ------- null}
h -t 0.877988 -s 2 -d 1 -p tcp -e 1040 -c 2 -i 16 -a 2 -x {5.0 1.0 -1 ------- null}
r -t 0.88882 -s 2 -d 1 -p tcp -e 1040 -c 2 -i 16 -a 2 -x {5.0 1.0 3 ------- null}
+ -t 0.88882 -s 1 -d 2 -p ack -e 40 -c 2 -i 24 -a 2 -x {1.0 5.0 3 ------- null}
- -t 0.88882 -s 1 -d 2 -p ack -e 40 -c 2 -i 24 -a 2 -x {1.0 5.0 3 ------- null}
h -t 0.88882 -s 1 -d 2 -p ack -e 40 -c 2 -i 24 -a 2 -x {1.0 5.0 -1 ------- null}
r -t 0.894628 -s 3 -d 2 -p tcp -e 1040 -c 2 -i 17 -a 2 -x {5.0 1.0 4 ------- null}
+ -t 0.894628 -s 2 -d 1 -p tcp -e 1040 -c 2 -i 17 -a 2 -x {5.0 1.0 4 ------- null}
- -t 0.894628 -s 2 -d 1 -p tcp -e 1040 -c 2 -i 17 -a 2 -x {5.0 1.0 4 ------- null}
h -t 0.894628 -s 2 -d 1 -p tcp -e 1040 -c 2 -i 17 -a 2 -x {5.0 1.0 -1 ------- null}
r -t 0.898852 -s 1 -d 2 -p ack -e 40 -c 2 -i 24 -a 2 -x {1.0 5.0 3 ------- null}
+ -t 0.898852 -s 2 -d 3 -p ack -e 40 -c 2 -i 24 -a 2 -x {1.0 5.0 3 ------- null}
- -t 0.898852 -s 2 -d 3 -p ack -e 40 -c 2 -i 24 -a 2 -x {1.0 5.0 3 ------- null}
h -t 0.898852 -s 2 -d 3 -p ack -e 40 -c 2 -i 24 -a 2 -x {1.0 5.0 -1 ------- null}
r -t 0.90546 -s 2 -d 1 -p tcp -e 1040 -c 2 -i 17 -a 2 -x {5.0 1.0 4 ------- null}
+ -t 0.90546 -s 1 -d 2 -p ack -e 40 -c 2 -i 25 -a 2 -x {1.0 5.0 4 ------- null}
- -t 0.90546 -s 1 -d 2 -p ack -e 40 -c 2 -i 25 -a 2 -x {1.0 5.0 4 ------- null}
h -t 0.90546 -s 1 -d 2 -p ack -e 40 -c 2 -i 25 -a 2 -x {1.0 5.0 -1 ------- null}
r -t 0.911268 -s 3 -d 2 -p tcp -e 1040 -c 2 -i 18 -a 2 -x {5.0 1.0 5 ------- null}
+ -t 0.911268 -s 2 -d 1 -p tcp -e 1040 -c 2 -i 18 -a 2 -x {5.0 1.0 5 ------- null}
- -t 0.911268 -s 2 -d 1 -p tcp -e 1040 -c 2 -i 18 -a 2 -x {5.0 1.0 5 ------- null}
h -t 0.911268 -s 2 -d 1 -p tcp -e 1040 -c 2 -i 18 -a 2 -x {5.0 1.0 -1 ------- null}
r -t 0.915492 -s 1 -d 2 -p ack -e 40 -c 2 -i 25 -a 2 -x {1.0 5.0 4 ------- null}
+ -t 0.915492 -s 2 -d 3 -p ack -e 40 -c 2 -i 25 -a 2 -x {1.0 5.0 4 ------- null}
- -t 0.915492 -s 2 -d 3 -p ack -e 40 -c 2 -i 25 -a 2 -x {1.0 5.0 4 ------- null}
h -t 0.915492 -s 2 -d 3 -p ack -e 40 -c 2 -i 25 -a 2 -x {1.0 5.0 -1 ------- null}
r -t 0.9221 -s 2 -d 1 -p tcp -e 1040 -c 2 -i 18 -a 2 -x {5.0 1.0 5 ------- null}
+ -t 0.9221 -s 1 -d 2 -p ack -e 40 -c 2 -i 26 -a 2 -x {1.0 5.0 5 ------- null}
- -t 0.9221 -s 1 -d 2 -p ack -e 40 -c 2 -i 26 -a 2 -x {1.0 5.0 5 ------- null}
h -t 0.9221 -s 1 -d 2 -p ack -e 40 -c 2 -i 26 -a 2 -x {1.0 5.0 -1 ------- null}
r -t 0.927908 -s 3 -d 2 -p tcp -e 1040 -c 2 -i 19 -a 2 -x {5.0 1.0 6 ------- null}
+ -t 0.927908 -s 2 -d 1 -p tcp -e 1040 -c 2 -i 19 -a 2 -x {5.0 1.0 6 ------- null}
- -t 0.927908 -s 2 -d 1 -p tcp -e 1040 -c 2 -i 19 -a 2 -x {5.0 1.0 6 ------- null}
h -t 0.927908 -s 2 -d 1 -p tcp -e 1040 -c 2 -i 19 -a 2 -x {5.0 1.0 -1 ------- null}
r -t 0.928548 -s 3 -d 2 -p ack -e 40 -c 1 -i 20 -a 1 -x {4.0 0.0 3 ------- null}
+ -t 0.928548 -s 2 -d 0 -p ack -e 40 -c 1 -i 20 -a 1 -x {4.0 0.0 3 ------- null}
- -t 0.928548 -s 2 -d 0 -p ack -e 40 -c 1 -i 20 -a 1 -x {4.0 0.0 3 ------- null}
h -t 0.928548 -s 2 -d 0 -p ack -e 40 -c 1 -i 20 -a 1 -x {4.0 0.0 -1 ------- null}
r -t 0.929188 -s 3 -d 2 -p ack -e 40 -c 1 -i 21 -a 1 -x {4.0 0.0 4 ------- null}
+ -t 0.929188 -s 2 -d 0 -p ack -e 40 -c 1 -i 21 -a 1 -x {4.0 0.0 4 ------- null}
- -t 0.929188 -s 2 -d 0 -p ack -e 40 -c 1 -i 21 -a 1 -x {4.0 0.0 4 ------- null}
h -t 0.929188 -s 2 -d 0 -p ack -e 40 -c 1 -i 21 -a 1 -x {4.0 0.0 -1 ------- null}
r -t 0.932132 -s 1 -d 2 -p ack -e 40 -c 2 -i 26 -a 2 -x {1.0 5.0 5 ------- null}
+ -t 0.932132 -s 2 -d 3 -p ack -e 40 -c 2 -i 26 -a 2 -x {1.0 5.0 5 ------- null}
- -t 0.932132 -s 2 -d 3 -p ack -e 40 -c 2 -i 26 -a 2 -x {1.0 5.0 5 ------- null}
h -t 0.932132 -s 2 -d 3 -p ack -e 40 -c 2 -i 26 -a 2 -x {1.0 5.0 -1 ------- null}
r -t 0.93858 -s 2 -d 0 -p ack -e 40 -c 1 -i 20 -a 1 -x {4.0 0.0 3 ------- null}
+ -t 0.93858 -s 0 -d 2 -p tcp -e 1040 -c 1 -i 27 -a 1 -x {0.0 4.0 7 ------- null}
- -t 0.93858 -s 0 -d 2 -p tcp -e 1040 -c 1 -i 27 -a 1 -x {0.0 4.0 7 ------- null}
h -t 0.93858 -s 0 -d 2 -p tcp -e 1040 -c 1 -i 27 -a 1 -x {0.0 4.0 -1 ------- null}
+ -t 0.93858 -s 0 -d 2 -p tcp -e 1040 -c 1 -i 28 -a 1 -x {0.0 4.0 8 ------- null}
r -t 0.93874 -s 2 -d 1 -p tcp -e 1040 -c 2 -i 19 -a 2 -x {5.0 1.0 6 ------- null}
+ -t 0.93874 -s 1 -d 2 -p ack -e 40 -c 2 -i 29 -a 2 -x {1.0 5.0 6 ------- null}
- -t 0.93874 -s 1 -d 2 -p ack -e 40 -c 2 -i 29 -a 2 -x {1.0 5.0 6 ------- null}
h -t 0.93874 -s 1 -d 2 -p ack -e 40 -c 2 -i 29 -a 2 -x {1.0 5.0 -1 ------- null}
r -t 0.93922 -s 2 -d 0 -p ack -e 40 -c 1 -i 21 -a 1 -x {4.0 0.0 4 ------- null}
+ -t 0.93922 -s 0 -d 2 -p tcp -e 1040 -c 1 -i 30 -a 1 -x {0.0 4.0 9 ------- null}
+ -t 0.93922 -s 0 -d 2 -p tcp -e 1040 -c 1 -i 31 -a 1 -x {0.0 4.0 10 ------- null}
- -t 0.939412 -s 0 -d 2 -p tcp -e 1040 -c 1 -i 28 -a 1 -x {0.0 4.0 8 ------- null}
h -t 0.939412 -s 0 -d 2 -p tcp -e 1040 -c 1 -i 28 -a 1 -x {0.0 4.0 -1 ------- null}
- -t 0.940244 -s 0 -d 2 -p tcp -e 1040 -c 1 -i 30 -a 1 -x {0.0 4.0 9 ------- null}
h -t 0.940244 -s 0 -d 2 -p tcp -e 1040 -c 1 -i 30 -a 1 -x {0.0 4.0 -1 ------- null}
- -t 0.941076 -s 0 -d 2 -p tcp -e 1040 -c 1 -i 31 -a 1 -x {0.0 4.0 10 ------- null}
h -t 0.941076 -s 0 -d 2 -p tcp -e 1040 -c 1 -i 31 -a 1 -x {0.0 4.0 -1 ------- null}
r -t 0.9427952 -s 3 -d 2 -p ack -e 40 -c 1 -i 22 -a 1 -x {4.0 0.0 5 ------- null}
+ -t 0.9427952 -s 2 -d 0 -p ack -e 40 -c 1 -i 22 -a 1 -x {4.0 0.0 5 ------- null}
- -t 0.9427952 -s 2 -d 0 -p ack -e 40 -c 1 -i 22 -a 1 -x {4.0 0.0 5 ------- null}
h -t 0.9427952 -s 2 -d 0 -p ack -e 40 -c 1 -i 22 -a 1 -x {4.0 0.0 -1 ------- null}
r -t 0.948772 -s 1 -d 2 -p ack -e 40 -c 2 -i 29 -a 2 -x {1.0 5.0 6 ------- null}
+ -t 0.948772 -s 2 -d 3 -p ack -e 40 -c 2 -i 29 -a 2 -x {1.0 5.0 6 ------- null}
- -t 0.948772 -s 2 -d 3 -p ack -e 40 -c 2 -i 29 -a 2 -x {1.0 5.0 6 ------- null}
h -t 0.948772 -s 2 -d 3 -p ack -e 40 -c 2 -i 29 -a 2 -x {1.0 5.0 -1 ------- null}
r -t 0.949412 -s 0 -d 2 -p tcp -e 1040 -c 1 -i 27 -a 1 -x {0.0 4.0 7 ------- null}
+ -t 0.949412 -s 2 -d 3 -p tcp -e 1040 -c 1 -i 27 -a 1 -x {0.0 4.0 7 ------- null}
- -t 0.949412 -s 2 -d 3 -p tcp -e 1040 -c 1 -i 27 -a 1 -x {0.0 4.0 7 ------- null}
h -t 0.949412 -s 2 -d 3 -p tcp -e 1040 -c 1 -i 27 -a 1 -x {0.0 4.0 -1 ------- null}
r -t 0.950244 -s 0 -d 2 -p tcp -e 1040 -c 1 -i 28 -a 1 -x {0.0 4.0 8 ------- null}
+ -t 0.950244 -s 2 -d 3 -p tcp -e 1040 -c 1 -i 28 -a 1 -x {0.0 4.0 8 ------- null}
r -t 0.951076 -s 0 -d 2 -p tcp -e 1040 -c 1 -i 30 -a 1 -x {0.0 4.0 9 ------- null}
+ -t 0.951076 -s 2 -d 3 -p tcp -e 1040 -c 1 -i 30 -a 1 -x {0.0 4.0 9 ------- null}
r -t 0.951908 -s 0 -d 2 -p tcp -e 1040 -c 1 -i 31 -a 1 -x {0.0 4.0 10 ------- null}