+ 0.1 0 2 tcp 40 ------- 1 0.0 4.0 0 0
- 0.1 0 2 tcp 40 ------- 1 0.0 4.0 0 0
r 0.110032 0 2 tcp 40 ------- 1 0.0 4.0 0 0
+ 0.110032 2 3 tcp 40 ------- 1 0.0 4.0 0 0
- 0.110032 2 3 tcp 40 ------- 1 0.0 4.0 0 0
h 0.2 5 6 tcp 40 ------- 2 5.0 1.0 0 1
+ 0.21 5 6 tcp 40 ------- 2 5.0 1.0 0 1
- 0.21 5 6 tcp 40 ------- 2 5.0 1.0 0 1
r 0.210672 2 3 tcp 40 ------- 1 0.0 4.0 0 0
h 0.210672 3 6 tcp 40 ------- 1 0.0 4.0 0 0
r 0.220055 6 3 tcp 40 ------- 2 5.0 1.0 0 1
+ 0.220055 3 2 tcp 40 ------- 2 5.0 1.0 0 1
- 0.220055 3 2 tcp 40 ------- 2 5.0 1.0 0 1
+ 0.220672 3 6 tcp 40 ------- 1 0.0 4.0 0 0
- 0.220672 3 6 tcp 40 ------- 1 0.0 4.0 0 0
r 0.230727 6 4 tcp 40 ------- 1 0.0 4.0 0 0
h 0.230727 4 6 ack 40 ------- 1 4.0 0.0 0 2
+ 0.240727 4 6 ack 40 ------- 1 4.0 0.0 0 2
- 0.240727 4 6 ack 40 ------- 1 4.0 0.0 0 2
r 0.250782 6 3 ack 40 ------- 1 4.0 0.0 0 2
+ 0.250782 3 2 ack 40 ------- 1 4.0 0.0 0 2
- 0.250782 3 2 ack 40 ------- 1 4.0 0.0 0 2
r 0.320695 3 2 tcp 40 ------- 2 5.0 1.0 0 1
+ 0.320695 2 1 tcp 40 ------- 2 5.0 1.0 0 1
- 0.320695 2 1 tcp 40 ------- 2 5.0 1.0 0 1
r 0.330727 2 1 tcp 40 ------- 2 5.0 1.0 0 1
+ 0.330727 1 2 ack 40 ------- 2 1.0 5.0 0 3
- 0.330727 1 2 ack 40 ------- 2 1.0 5.0 0 3
r 0.340759 1 2 ack 40 ------- 2 1.0 5.0 0 3
+ 0.340759 2 3 ack 40 ------- 2 1.0 5.0 0 3
- 0.340759 2 3 ack 40 ------- 2 1.0 5.0 0 3
r 0.351422 3 2 ack 40 ------- 1 4.0 0.0 0 2
+ 0.351422 2 0 ack 40 ------- 1 4.0 0.0 0 2
- 0.351422 2 0 ack 40 ------- 1 4.0 0.0 0 2
r 0.361454 2 0 ack 40 ------- 1 4.0 0.0 0 2
+ 0.361454 0 2 tcp 1040 ------- 1 0.0 4.0 1 4
- 0.361454 0 2 tcp 1040 ------- 1 0.0 4.0 1 4
+ 0.361454 0 2 tcp 1040 ------- 1 0.0 4.0 2 5
- 0.362286 0 2 tcp 1040 ------- 1 0.0 4.0 2 5
r 0.372286 0 2 tcp 1040 ------- 1 0.0 4.0 1 4
+ 0.372286 2 3 tcp 1040 ------- 1 0.0 4.0 1 4
- 0.372286 2 3 tcp 1040 ------- 1 0.0 4.0 1 4
r 0.373118 0 2 tcp 1040 ------- 1 0.0 4.0 2 5
+ 0.373118 2 3 tcp 1040 ------- 1 0.0 4.0 2 5
- 0.388926 2 3 tcp 1040 ------- 1 0.0 4.0 2 5
r 0.441399 2 3 ack 40 ------- 2 1.0 5.0 0 3
h 0.441399 3 6 ack 40 ------- 2 1.0 5.0 0 3
+ 0.451399 3 6 ack 40 ------- 2 1.0 5.0 0 3
- 0.451399 3 6 ack 40 ------- 2 1.0 5.0 0 3
r 0.461454 6 5 ack 40 ------- 2 1.0 5.0 0 3
h 0.461454 5 6 tcp 1040 ------- 2 5.0 1.0 1 6
h 0.461454 5 6 tcp 1040 ------- 2 5.0 1.0 2 7
+ 0.471454 5 6 tcp 1040 ------- 2 5.0 1.0 1 6
- 0.471454 5 6 tcp 1040 ------- 2 5.0 1.0 1 6
+ 0.471454 5 6 tcp 1040 ------- 2 5.0 1.0 2 7
- 0.472307 5 6 tcp 1040 ------- 2 5.0 1.0 2 7
r 0.482302 6 3 tcp 1040 ------- 2 5.0 1.0 1 6
+ 0.482302 3 2 tcp 1040 ------- 2 5.0 1.0 1 6
- 0.482302 3 2 tcp 1040 ------- 2 5.0 1.0 1 6
r 0.483154 6 3 tcp 1040 ------- 2 5.0 1.0 2 7
+ 0.483154 3 2 tcp 1040 ------- 2 5.0 1.0 2 7
r 0.488926 2 3 tcp 1040 ------- 1 0.0 4.0 1 4
h 0.488926 3 6 tcp 1040 ------- 1 0.0 4.0 1 4
+ 0.498926 3 6 tcp 1040 ------- 1 0.0 4.0 1 4
- 0.498926 3 6 tcp 1040 ------- 1 0.0 4.0 1 4
- 0.498942 3 2 tcp 1040 ------- 2 5.0 1.0 2 7
r 0.505566 2 3 tcp 1040 ------- 1 0.0 4.0 2 5
h 0.505566 3 6 tcp 1040 ------- 1 0.0 4.0 2 5
r 0.509774 6 4 tcp 1040 ------- 1 0.0 4.0 1 4
h 0.509774 4 6 ack 40 ------- 1 4.0 0.0 1 8
+ 0.515566 3 6 tcp 1040 ------- 1 0.0 4.0 2 5
- 0.515566 3 6 tcp 1040 ------- 1 0.0 4.0 2 5
+ 0.519774 4 6 ack 40 ------- 1 4.0 0.0 1 8
- 0.519774 4 6 ack 40 ------- 1 4.0 0.0 1 8
r 0.526414 6 4 tcp 1040 ------- 1 0.0 4.0 2 5
h 0.526414 4 6 ack 40 ------- 1 4.0 0.0 2 9
r 0.529829 6 3 ack 40 ------- 1 4.0 0.0 1 8
+ 0.529829 3 2 ack 40 ------- 1 4.0 0.0 1 8
- 0.529829 3 2 ack 40 ------- 1 4.0 0.0 1 8
+ 0.536414 4 6 ack 40 ------- 1 4.0 0.0 2 9
- 0.536414 4 6 ack 40 ------- 1 4.0 0.0 2 9
r 0.546469 6 3 ack 40 ------- 1 4.0 0.0 2 9
+ 0.546469 3 2 ack 40 ------- 1 4.0 0.0 2 9
- 0.546469 3 2 ack 40 ------- 1 4.0 0.0 2 9
r 0.598942 3 2 tcp 1040 ------- 2 5.0 1.0 1 6
+ 0.598942 2 1 tcp 1040 ------- 2 5.0 1.0 1 6
- 0.598942 2 1 tcp 1040 ------- 2 5.0 1.0 1 6
r 0.609774 2 1 tcp 1040 ------- 2 5.0 1.0 1 6
+ 0.609774 1 2 ack 40 ------- 2 1.0 5.0 1 10
- 0.609774 1 2 ack 40 ------- 2 1.0 5.0 1 10
r 0.615582 3 2 tcp 1040 ------- 2 5.0 1.0 2 7
+ 0.615582 2 1 tcp 1040 ------- 2 5.0 1.0 2 7
- 0.615582 2 1 tcp 1040 ------- 2 5.0 1.0 2 7
r 0.619806 1 2 ack 40 ------- 2 1.0 5.0 1 10
+ 0.619806 2 3 ack 40 ------- 2 1.0 5.0 1 10
- 0.619806 2 3 ack 40 ------- 2 1.0 5.0 1 10
r 0.626414 2 1 tcp 1040 ------- 2 5.0 1.0 2 7
+ 0.626414 1 2 ack 40 ------- 2 1.0 5.0 2 11
- 0.626414 1 2 ack 40 ------- 2 1.0 5.0 2 11
r 0.630469 3 2 ack 40 ------- 1 4.0 0.0 1 8
+ 0.630469 2 0 ack 40 ------- 1 4.0 0.0 1 8
- 0.630469 2 0 ack 40 ------- 1 4.0 0.0 1 8
r 0.636446 1 2 ack 40 ------- 2 1.0 5.0 2 11
+ 0.636446 2 3 ack 40 ------- 2 1.0 5.0 2 11
- 0.636446 2 3 ack 40 ------- 2 1.0 5.0 2 11
r 0.640501 2 0 ack 40 ------- 1 4.0 0.0 1 8
+ 0.640501 0 2 tcp 1040 ------- 1 0.0 4.0 3 12
- 0.640501 0 2 tcp 1040 ------- 1 0.0 4.0 3 12
+ 0.640501 0 2 tcp 1040 ------- 1 0.0 4.0 4 13
- 0.641333 0 2 tcp 1040 ------- 1 0.0 4.0 4 13
r 0.647109 3 2 ack 40 ------- 1 4.0 0.0 2 9
+ 0.647109 2 0 ack 40 ------- 1 4.0 0.0 2 9
- 0.647109 2 0 ack 40 ------- 1 4.0 0.0 2 9
r 0.651333 0 2 tcp 1040 ------- 1 0.0 4.0 3 12
+ 0.651333 2 3 tcp 1040 ------- 1 0.0 4.0 3 12
- 0.651333 2 3 tcp 1040 ------- 1 0.0 4.0 3 12
r 0.652165 0 2 tcp 1040 ------- 1 0.0 4.0 4 13
+ 0.652165 2 3 tcp 1040 ------- 1 0.0 4.0 4 13
r 0.657141 2 0 ack 40 ------- 1 4.0 0.0 2 9
+ 0.657141 0 2 tcp 1040 ------- 1 0.0 4.0 5 14
- 0.657141 0 2 tcp 1040 ------- 1 0.0 4.0 5 14
+ 0.657141 0 2 tcp 1040 ------- 1 0.0 4.0 6 15
- 0.657973 0 2 tcp 1040 ------- 1 0.0 4.0 6 15
- 0.667973 2 3 tcp 1040 ------- 1 0.0 4.0 4 13
r 0.667973 0 2 tcp 1040 ------- 1 0.0 4.0 5 14
+ 0.667973 2 3 tcp 1040 ------- 1 0.0 4.0 5 14
r 0.668805 0 2 tcp 1040 ------- 1 0.0 4.0 6 15
+ 0.668805 2 3 tcp 1040 ------- 1 0.0 4.0 6 15
- 0.684613 2 3 tcp 1040 ------- 1 0.0 4.0 5 14
- 0.701253 2 3 tcp 1040 ------- 1 0.0 4.0 6 15
r 0.720446 2 3 ack 40 ------- 2 1.0 5.0 1 10
h 0.720446 3 6 ack 40 ------- 2 1.0 5.0 1 10
+ 0.730446 3 6 ack 40 ------- 2 1.0 5.0 1 10
- 0.730446 3 6 ack 40 ------- 2 1.0 5.0 1 10
r 0.737086 2 3 ack 40 ------- 2 1.0 5.0 2 11
h 0.737086 3 6 ack 40 ------- 2 1.0 5.0 2 11
r 0.740501 6 5 ack 40 ------- 2 1.0 5.0 1 10
h 0.740501 5 6 tcp 1040 ------- 2 5.0 1.0 3 16
h 0.740501 5 6 tcp 1040 ------- 2 5.0 1.0 4 17
+ 0.747086 3 6 ack 40 ------- 2 1.0 5.0 2 11
- 0.747086 3 6 ack 40 ------- 2 1.0 5.0 2 11
+ 0.750501 5 6 tcp 1040 ------- 2 5.0 1.0 3 16
- 0.750501 5 6 tcp 1040 ------- 2 5.0 1.0 3 16
+ 0.750501 5 6 tcp 1040 ------- 2 5.0 1.0 4 17
- 0.751354 5 6 tcp 1040 ------- 2 5.0 1.0 4 17
r 0.757141 6 5 ack 40 ------- 2 1.0 5.0 2 11
h 0.757141 5 6 tcp 1040 ------- 2 5.0 1.0 5 18
h 0.757141 5 6 tcp 1040 ------- 2 5.0 1.0 6 19
r 0.761348 6 3 tcp 1040 ------- 2 5.0 1.0 3 16
+ 0.761348 3 2 tcp 1040 ------- 2 5.0 1.0 3 16
- 0.761348 3 2 tcp 1040 ------- 2 5.0 1.0 3 16
r 0.762201 6 3 tcp 1040 ------- 2 5.0 1.0 4 17
+ 0.762201 3 2 tcp 1040 ------- 2 5.0 1.0 4 17
+ 0.767141 5 6 tcp 1040 ------- 2 5.0 1.0 5 18
- 0.767141 5 6 tcp 1040 ------- 2 5.0 1.0 5 18
+ 0.767141 5 6 tcp 1040 ------- 2 5.0 1.0 6 19
r 0.767973 2 3 tcp 1040 ------- 1 0.0 4.0 3 12
h 0.767973 3 6 tcp 1040 ------- 1 0.0 4.0 3 12
- 0.767994 5 6 tcp 1040 ------- 2 5.0 1.0 6 19
+ 0.777973 3 6 tcp 1040 ------- 1 0.0 4.0 3 12
- 0.777973 3 6 tcp 1040 ------- 1 0.0 4.0 3 12
- 0.777988 3 2 tcp 1040 ------- 2 5.0 1.0 4 17
r 0.777988 6 3 tcp 1040 ------- 2 5.0 1.0 5 18
+ 0.777988 3 2 tcp 1040 ------- 2 5.0 1.0 5 18
r 0.778841 6 3 tcp 1040 ------- 2 5.0 1.0 6 19
+ 0.778841 3 2 tcp 1040 ------- 2 5.0 1.0 6 19
r 0.784613 2 3 tcp 1040 ------- 1 0.0 4.0 4 13
h 0.784613 3 6 tcp 1040 ------- 1 0.0 4.0 4 13
r 0.78882 6 4 tcp 1040 ------- 1 0.0 4.0 3 12
h 0.78882 4 6 ack 40 ------- 1 4.0 0.0 3 20
+ 0.794613 3 6 tcp 1040 ------- 1 0.0 4.0 4 13
- 0.794613 3 6 tcp 1040 ------- 1 0.0 4.0 4 13
- 0.794628 3 2 tcp 1040 ------- 2 5.0 1.0 5 18
+ 0.79882 4 6 ack 40 ------- 1 4.0 0.0 3 20
- 0.79882 4 6 ack 40 ------- 1 4.0 0.0 3 20
r 0.801253 2 3 tcp 1040 ------- 1 0.0 4.0 5 14
h 0.801253 3 6 tcp 1040 ------- 1 0.0 4.0 5 14
r 0.80546 6 4 tcp 1040 ------- 1 0.0 4.0 4 13
h 0.80546 4 6 ack 40 ------- 1 4.0 0.0 4 21
r 0.808875 6 3 ack 40 ------- 1 4.0 0.0 3 20
+ 0.808875 3 2 ack 40 ------- 1 4.0 0.0 3 20
+ 0.811253 3 6 tcp 1040 ------- 1 0.0 4.0 5 14
- 0.811253 3 6 tcp 1040 ------- 1 0.0 4.0 5 14
- 0.811268 3 2 tcp 1040 ------- 2 5.0 1.0 6 19
+ 0.81546 4 6 ack 40 ------- 1 4.0 0.0 4 21
- 0.81546 4 6 ack 40 ------- 1 4.0 0.0 4 21
r 0.817893 2 3 tcp 1040 ------- 1 0.0 4.0 6 15
h 0.817893 3 6 tcp 1040 ------- 1 0.0 4.0 6 15
r 0.8221 6 4 tcp 1040 ------- 1 0.0 4.0 5 14
h 0.8221 4 6 ack 40 ------- 1 4.0 0.0 5 22
r 0.825515 6 3 ack 40 ------- 1 4.0 0.0 4 21
+ 0.825515 3 2 ack 40 ------- 1 4.0 0.0 4 21
+ 0.827893 3 6 tcp 1040 ------- 1 0.0 4.0 6 15
- 0.827893 3 6 tcp 1040 ------- 1 0.0 4.0 6 15
- 0.827908 3 2 ack 40 ------- 1 4.0 0.0 3 20
- 0.828548 3 2 ack 40 ------- 1 4.0 0.0 4 21
+ 0.8321 4 6 ack 40 ------- 1 4.0 0.0 5 22
- 0.8321 4 6 ack 40 ------- 1 4.0 0.0 5 22
r 0.83874 6 4 tcp 1040 ------- 1 0.0 4.0 6 15
h 0.83874 4 6 ack 40 ------- 1 4.0 0.0 6 23
r 0.842155 6 3 ack 40 ------- 1 4.0 0.0 5 22
+ 0.842155 3 2 ack 40 ------- 1 4.0 0.0 5 22
- 0.842155 3 2 ack 40 ------- 1 4.0 0.0 5 22
+ 0.84874 4 6 ack 40 ------- 1 4.0 0.0 6 23
- 0.84874 4 6 ack 40 ------- 1 4.0 0.0 6 23
r 0.858795 6 3 ack 40 ------- 1 4.0 0.0 6 23
+ 0.858795 3 2 ack 40 ------- 1 4.0 0.0 6 23
- 0.858795 3 2 ack 40 ------- 1 4.0 0.0 6 23
r 0.877988 3 2 tcp 1040 ------- 2 5.0 1.0 3 16
+ 0.877988 2 1 tcp 1040 ------- 2 5.0 1.0 3 16
- 0.877988 2 1 tcp 1040 ------- 2 5.0 1.0 3 16
r 0.88882 2 1 tcp 1040 ------- 2 5.0 1.0 3 16
+ 0.88882 1 2 ack 40 ------- 2 1.0 5.0 3 24
- 0.88882 1 2 ack 40 ------- 2 1.0 5.0 3 24
r 0.894628 3 2 tcp 1040 ------- 2 5.0 1.0 4 17
+ 0.894628 2 1 tcp 1040 ------- 2 5.0 1.0 4 17
- 0.894628 2 1 tcp 1040 ------- 2 5.0 1.0 4 17
r 0.898852 1 2 ack 40 ------- 2 1.0 5.0 3 24
+ 0.898852 2 3 ack 40 ------- 2 1.0 5.0 3 24
- 0.898852 2 3 ack 40 ------- 2 1.0 5.0 3 24
r 0.90546 2 1 tcp 1040 ------- 2 5.0 1.0 4 17
+ 0.90546 1 2 ack 40 ------- 2 1.0 5.0 4 25
- 0.90546 1 2 ack 40 ------- 2 1.0 5.0 4 25
r 0.911268 3 2 tcp 1040 ------- 2 5.0 1.0 5 18
+ 0.911268 2 1 tcp 1040 ------- 2 5.0 1.0 5 18
- 0.911268 2 1 tcp 1040 ------- 2 5.0 1.0 5 18
r 0.915492 1 2 ack 40 ------- 2 1.0 5.0 4 25
+ 0.915492 2 3 ack 40 ------- 2 1.0 5.0 4 25
- 0.915492 2 3 ack 40 ------- 2 1.0 5.0 4 25
r 0.9221 2 1 tcp 1040 ------- 2 5.0 1.0 5 18
+ 0.9221 1 2 ack 40 ------- 2 1.0 5.0 5 26
- 0.9221 1 2 ack 40 ------- 2 1.0 5.0 5 26
r 0.927908 3 2 tcp 1040 ------- 2 5.0 1.0 6 19
+ 0.927908 2 1 tcp 1040 ------- 2 5.0 1.0 6 19
- 0.927908 2 1 tcp 1040 ------- 2 5.0 1.0 6 19
r 0.928548 3 2 ack 40 ------- 1 4.0 0.0 3 20
+ 0.928548 2 0 ack 40 ------- 1 4.0 0.0 3 20
- 0.928548 2 0 ack 40 ------- 1 4.0 0.0 3 20
r 0.929188 3 2 ack 40 ------- 1 4.0 0.0 4 21
+ 0.929188 2 0 ack 40 ------- 1 4.0 0.0 4 21
- 0.929188 2 0 ack 40 ------- 1 4.0 0.0 4 21
r 0.932132 1 2 ack 40 ------- 2 1.0 5.0 5 26
+ 0.932132 2 3 ack 40 ------- 2 1.0 5.0 5 26
- 0.932132 2 3 ack 40 ------- 2 1.0 5.0 5 26
r 0.93858 2 0 ack 40 ------- 1 4.0 0.0 3 20
+ 0.93858 0 2 tcp 1040 ------- 1 0.0 4.0 7 27
- 0.93858 0 2 tcp 1040 ------- 1 0.0 4.0 7 27
+ 0.93858 0 2 tcp 1040 ------- 1 0.0 4.0 8 28
r 0.93874 2 1 tcp 1040 ------- 2 5.0 1.0 6 19
+ 0.93874 1 2 ack 40 ------- 2 1.0 5.0 6 29
- 0.93874 1 2 ack 40 ------- 2 1.0 5.0 6 29
r 0.93922 2 0 ack 40 ------- 1 4.0 0.0 4 21
+ 0.93922 0 2 tcp 1040 ------- 1 0.0 4.0 9 30
+ 0.93922 0 2 tcp 1040 ------- 1 0.0 4.0 10 31
- 0.939412 0 2 tcp 1040 ------- 1 0.0 4.0 8 28
- 0.940244 0 2 tcp 1040 ------- 1 0.0 4.0 9 30
- 0.941076 0 2 tcp 1040 ------- 1 0.0 4.0 10 31
r 0.942795 3 2 ack 40 ------- 1 4.0 0.0 5 22
+ 0.942795 2 0 ack 40 ------- 1 4.0 0.0 5 22
- 0.942795 2 0 ack 40 ------- 1 4.0 0.0 5 22
r 0.948772 1 2 ack 40 ------- 2 1.0 5.0 6 29
+ 0.948772 2 3 ack 40 ------- 2 1.0 5.0 6 29
- 0.948772 2 3 ack 40 ------- 2 1.0 5.0 6 29
r 0.949412 0 2 tcp 1040 ------- 1 0.0 4.0 7 27
+ 0.949412 2 3 tcp 1040 ------- 1 0.0 4.0 7 27
- 0.949412 2 3 tcp 1040 ------- 1 0.0 4.0 7 27
r 0.950244 0 2 tcp 1040 ------- 1 0.0 4.0 8 28
+ 0.950244 2 3 tcp 1040 ------- 1 0.0 4.0 8 28
r 0.951076 0 2 tcp 1040 ------- 1 0.0 4.0 9 30
+ 0.951076 2 3 tcp 1040 ------- 1 0.0 4.0 9 30
r 0.951908 0 2 tcp 1040 ------- 1 0.0 4.0 10 31
+ 0.951908 2 3 tcp 1040 ------- 1 0.0 4.0 10 31
r 0.952827 2 0 ack 40 ------- 1 4.0 0.0 5 22
+ 0.952827 0 2 tcp 1040 ------- 1 0.0 4.0 11 32
- 0.952827 0 2 tcp 1040 ------- 1 0.0 4.0 11 32
+ 0.952827 0 2 tcp 1040 ------- 1 0.0 4.0 12 33
- 0.953659 0 2 tcp 1040 ------- 1 0.0 4.0 12 33
r 0.959435 3 2 ack 40 ------- 1 4.0 0.0 6 23
+ 0.959435 2 0 ack 40 ------- 1 4.0 0.0 6 23
- 0.959435 2 0 ack 40 ------- 1 4.0 0.0 6 23
r 0.963659 0 2 tcp 1040 ------- 1 0.0 4.0 11 32
+ 0.963659 2 3 tcp 1040 ------- 1 0.0 4.0 11 32
r 0.964491 0 2 tcp 1040 ------- 1 0.0 4.0 12 33
+ 0.964491 2 3 tcp 1040 ------- 1 0.0 4.0 12 33
- 0.966052 2 3 tcp 1040 ------- 1 0.0 4.0 8 28
r 0.969467 2 0 ack 40 ------- 1 4.0 0.0 6 23
+ 0.969467 0 2 tcp 1040 ------- 1 0.0 4.0 13 34
- 0.969467 0 2 tcp 1040 ------- 1 0.0 4.0 13 34
+ 0.969467 0 2 tcp 1040 ------- 1 0.0 4.0 14 35
- 0.970299 0 2 tcp 1040 ------- 1 0.0 4.0 14 35
r 0.980299 0 2 tcp 1040 ------- 1 0.0 4.0 13 34
+ 0.980299 2 3 tcp 1040 ------- 1 0.0 4.0 13 34
r 0.981131 0 2 tcp 1040 ------- 1 0.0 4.0 14 35
+ 0.981131 2 3 tcp 1040 ------- 1 0.0 4.0 14 35
- 0.982692 2 3 tcp 1040 ------- 1 0.0 4.0 9 30
- 0.999332 2 3 tcp 1040 ------- 1 0.0 4.0 10 31
r 0.999492 2 3 ack 40 ------- 2 1.0 5.0 3 24
h 0.999492 3 6 ack 40 ------- 2 1.0 5.0 3 24
+ 1.009492 3 6 ack 40 ------- 2 1.0 5.0 3 24
- 1.009492 3 6 ack 40 ------- 2 1.0 5.0 3 24
- 1.015972 2 3 tcp 1040 ------- 1 0.0 4.0 11 32
r 1.016132 2 3 ack 40 ------- 2 1.0 5.0 4 25
h 1.016132 3 6 ack 40 ------- 2 1.0 5.0 4 25
r 1.019547 6 5 ack 40 ------- 2 1.0 5.0 3 24
h 1.019547 5 6 tcp 1040 ------- 2 5.0 1.0 7 36
h 1.019547 5 6 tcp 1040 ------- 2 5.0 1.0 8 37
+ 1.026132 3 6 ack 40 ------- 2 1.0 5.0 4 25
- 1.026132 3 6 ack 40 ------- 2 1.0 5.0 4 25
+ 1.029547 5 6 tcp 1040 ------- 2 5.0 1.0 7 36
- 1.029547 5 6 tcp 1040 ------- 2 5.0 1.0 7 36
+ 1.029547 5 6 tcp 1040 ------- 2 5.0 1.0 8 37
- 1.0304 5 6 tcp 1040 ------- 2 5.0 1.0 8 37
- 1.032612 2 3 tcp 1040 ------- 1 0.0 4.0 12 33
r 1.032772 2 3 ack 40 ------- 2 1.0 5.0 5 26
h 1.032772 3 6 ack 40 ------- 2 1.0 5.0 5 26
r 1.036187 6 5 ack 40 ------- 2 1.0 5.0 4 25
h 1.036187 5 6 tcp 1040 ------- 2 5.0 1.0 9 38
r 1.040394 6 3 tcp 1040 ------- 2 5.0 1.0 7 36
+ 1.040394 3 2 tcp 1040 ------- 2 5.0 1.0 7 36
- 1.040394 3 2 tcp 1040 ------- 2 5.0 1.0 7 36
r 1.041247 6 3 tcp 1040 ------- 2 5.0 1.0 8 37
+ 1.041247 3 2 tcp 1040 ------- 2 5.0 1.0 8 37
+ 1.042772 3 6 ack 40 ------- 2 1.0 5.0 5 26
- 1.042772 3 6 ack 40 ------- 2 1.0 5.0 5 26
+ 1.046187 5 6 tcp 1040 ------- 2 5.0 1.0 9 38
- 1.046187 5 6 tcp 1040 ------- 2 5.0 1.0 9 38
- 1.049252 2 3 tcp 1040 ------- 1 0.0 4.0 13 34
r 1.049412 2 3 ack 40 ------- 2 1.0 5.0 6 29
h 1.049412 3 6 ack 40 ------- 2 1.0 5.0 6 29
r 1.052827 6 5 ack 40 ------- 2 1.0 5.0 5 26
h 1.052827 5 6 tcp 1040 ------- 2 5.0 1.0 10 39
- 1.057034 3 2 tcp 1040 ------- 2 5.0 1.0 8 37
r 1.057034 6 3 tcp 1040 ------- 2 5.0 1.0 9 38
+ 1.057034 3 2 tcp 1040 ------- 2 5.0 1.0 9 38
+ 1.059412 3 6 ack 40 ------- 2 1.0 5.0 6 29
- 1.059412 3 6 ack 40 ------- 2 1.0 5.0 6 29
+ 1.062827 5 6 tcp 1040 ------- 2 5.0 1.0 10 39
- 1.062827 5 6 tcp 1040 ------- 2 5.0 1.0 10 39
- 1.065892 2 3 tcp 1040 ------- 1 0.0 4.0 14 35
r 1.066052 2 3 tcp 1040 ------- 1 0.0 4.0 7 27
h 1.066052 3 6 tcp 1040 ------- 1 0.0 4.0 7 27
r 1.069467 6 5 ack 40 ------- 2 1.0 5.0 6 29
h 1.069467 5 6 tcp 1040 ------- 2 5.0 1.0 11 40
- 1.073674 3 2 tcp 1040 ------- 2 5.0 1.0 9 38
r 1.073674 6 3 tcp 1040 ------- 2 5.0 1.0 10 39
+ 1.073674 3 2 tcp 1040 ------- 2 5.0 1.0 10 39
+ 1.076052 3 6 tcp 1040 ------- 1 0.0 4.0 7 27
- 1.076052 3 6 tcp 1040 ------- 1 0.0 4.0 7 27
+ 1.079467 5 6 tcp 1040 ------- 2 5.0 1.0 11 40
- 1.079467 5 6 tcp 1040 ------- 2 5.0 1.0 11 40
r 1.082692 2 3 tcp 1040 ------- 1 0.0 4.0 8 28
h 1.082692 3 6 tcp 1040 ------- 1 0.0 4.0 8 28
r 1.086899 6 4 tcp 1040 ------- 1 0.0 4.0 7 27
h 1.086899 4 6 ack 40 ------- 1 4.0 0.0 7 41
- 1.090314 3 2 tcp 1040 ------- 2 5.0 1.0 10 39
r 1.090314 6 3 tcp 1040 ------- 2 5.0 1.0 11 40
+ 1.090314 3 2 tcp 1040 ------- 2 5.0 1.0 11 40
+ 1.092692 3 6 tcp 1040 ------- 1 0.0 4.0 8 28
- 1.092692 3 6 tcp 1040 ------- 1 0.0 4.0 8 28
+ 1.096899 4 6 ack 40 ------- 1 4.0 0.0 7 41
- 1.096899 4 6 ack 40 ------- 1 4.0 0.0 7 41
r 1.099332 2 3 tcp 1040 ------- 1 0.0 4.0 9 30
h 1.099332 3 6 tcp 1040 ------- 1 0.0 4.0 9 30
r 1.103539 6 4 tcp 1040 ------- 1 0.0 4.0 8 28
h 1.103539 4 6 ack 40 ------- 1 4.0 0.0 8 42
- 1.106954 3 2 tcp 1040 ------- 2 5.0 1.0 11 40
r 1.106954 6 3 ack 40 ------- 1 4.0 0.0 7 41
+ 1.106954 3 2 ack 40 ------- 1 4.0 0.0 7 41
+ 1.109332 3 6 tcp 1040 ------- 1 0.0 4.0 9 30
- 1.109332 3 6 tcp 1040 ------- 1 0.0 4.0 9 30
+ 1.113539 4 6 ack 40 ------- 1 4.0 0.0 8 42
- 1.113539 4 6 ack 40 ------- 1 4.0 0.0 8 42
r 1.115972 2 3 tcp 1040 ------- 1 0.0 4.0 10 31
h 1.115972 3 6 tcp 1040 ------- 1 0.0 4.0 10 31
r 1.120179 6 4 tcp 1040 ------- 1 0.0 4.0 9 30
h 1.120179 4 6 ack 40 ------- 1 4.0 0.0 9 43
- 1.123594 3 2 ack 40 ------- 1 4.0 0.0 7 41
r 1.123594 6 3 ack 40 ------- 1 4.0 0.0 8 42
+ 1.123594 3 2 ack 40 ------- 1 4.0 0.0 8 42
- 1.124234 3 2 ack 40 ------- 1 4.0 0.0 8 42
+ 1.125972 3 6 tcp 1040 ------- 1 0.0 4.0 10 31
- 1.125972 3 6 tcp 1040 ------- 1 0.0 4.0 10 31
+ 1.130179 4 6 ack 40 ------- 1 4.0 0.0 9 43
- 1.130179 4 6 ack 40 ------- 1 4.0 0.0 9 43
r 1.132612 2 3 tcp 1040 ------- 1 0.0 4.0 11 32
h 1.132612 3 6 tcp 1040 ------- 1 0.0 4.0 11 32
r 1.136819 6 4 tcp 1040 ------- 1 0.0 4.0 10 31
h 1.136819 4 6 ack 40 ------- 1 4.0 0.0 10 44
r 1.140234 6 3 ack 40 ------- 1 4.0 0.0 9 43
+ 1.140234 3 2 ack 40 ------- 1 4.0 0.0 9 43
- 1.140234 3 2 ack 40 ------- 1 4.0 0.0 9 43
+ 1.142612 3 6 tcp 1040 ------- 1 0.0 4.0 11 32
- 1.142612 3 6 tcp 1040 ------- 1 0.0 4.0 11 32
+ 1.146819 4 6 ack 40 ------- 1 4.0 0.0 10 44
- 1.146819 4 6 ack 40 ------- 1 4.0 0.0 10 44
r 1.149252 2 3 tcp 1040 ------- 1 0.0 4.0 12 33
h 1.149252 3 6 tcp 1040 ------- 1 0.0 4.0 12 33
r 1.153459 6 4 tcp 1040 ------- 1 0.0 4.0 11 32
h 1.153459 4 6 ack 40 ------- 1 4.0 0.0 11 45
r 1.156874 6 3 ack 40 ------- 1 4.0 0.0 10 44
+ 1.156874 3 2 ack 40 ------- 1 4.0 0.0 10 44
- 1.156874 3 2 ack 40 ------- 1 4.0 0.0 10 44
r 1.157034 3 2 tcp 1040 ------- 2 5.0 1.0 7 36
+ 1.157034 2 1 tcp 1040 ------- 2 5.0 1.0 7 36
- 1.157034 2 1 tcp 1040 ------- 2 5.0 1.0 7 36
+ 1.159252 3 6 tcp 1040 ------- 1 0.0 4.0 12 33
- 1.159252 3 6 tcp 1040 ------- 1 0.0 4.0 12 33
+ 1.163459 4 6 ack 40 ------- 1 4.0 0.0 11 45
- 1.163459 4 6 ack 40 ------- 1 4.0 0.0 11 45
r 1.165892 2 3 tcp 1040 ------- 1 0.0 4.0 13 34
h 1.165892 3 6 tcp 1040 ------- 1 0.0 4.0 13 34
r 1.167866 2 1 tcp 1040 ------- 2 5.0 1.0 7 36
+ 1.167866 1 2 ack 40 ------- 2 1.0 5.0 7 46
- 1.167866 1 2 ack 40 ------- 2 1.0 5.0 7 46
r 1.170099 6 4 tcp 1040 ------- 1 0.0 4.0 12 33
h 1.170099 4 6 ack 40 ------- 1 4.0 0.0 12 47
r 1.173514 6 3 ack 40 ------- 1 4.0 0.0 11 45
+ 1.173514 3 2 ack 40 ------- 1 4.0 0.0 11 45
- 1.173514 3 2 ack 40 ------- 1 4.0 0.0 11 45
r 1.173674 3 2 tcp 1040 ------- 2 5.0 1.0 8 37
+ 1.173674 2 1 tcp 1040 ------- 2 5.0 1.0 8 37
- 1.173674 2 1 tcp 1040 ------- 2 5.0 1.0 8 37
+ 1.175892 3 6 tcp 1040 ------- 1 0.0 4.0 13 34
- 1.175892 3 6 tcp 1040 ------- 1 0.0 4.0 13 34
r 1.177898 1 2 ack 40 ------- 2 1.0 5.0 7 46
+ 1.177898 2 3 ack 40 ------- 2 1.0 5.0 7 46
- 1.177898 2 3 ack 40 ------- 2 1.0 5.0 7 46
+ 1.180099 4 6 ack 40 ------- 1 4.0 0.0 12 47
- 1.180099 4 6 ack 40 ------- 1 4.0 0.0 12 47
r 1.182532 2 3 tcp 1040 ------- 1 0.0 4.0 14 35
h 1.182532 3 6 tcp 1040 ------- 1 0.0 4.0 14 35
r 1.184506 2 1 tcp 1040 ------- 2 5.0 1.0 8 37
+ 1.184506 1 2 ack 40 ------- 2 1.0 5.0 8 48
- 1.184506 1 2 ack 40 ------- 2 1.0 5.0 8 48
r 1.186739 6 4 tcp 1040 ------- 1 0.0 4.0 13 34
h 1.186739 4 6 ack 40 ------- 1 4.0 0.0 13 49
r 1.190154 6 3 ack 40 ------- 1 4.0 0.0 12 47
+ 1.190154 3 2 ack 40 ------- 1 4.0 0.0 12 47
- 1.190154 3 2 ack 40 ------- 1 4.0 0.0 12 47
r 1.190314 3 2 tcp 1040 ------- 2 5.0 1.0 9 38
+ 1.190314 2 1 tcp 1040 ------- 2 5.0 1.0 9 38
- 1.190314 2 1 tcp 1040 ------- 2 5.0 1.0 9 38
+ 1.192532 3 6 tcp 1040 ------- 1 0.0 4.0 14 35
- 1.192532 3 6 tcp 1040 ------- 1 0.0 4.0 14 35
r 1.194538 1 2 ack 40 ------- 2 1.0 5.0 8 48
+ 1.194538 2 3 ack 40 ------- 2 1.0 5.0 8 48
- 1.194538 2 3 ack 40 ------- 2 1.0 5.0 8 48
+ 1.196739 4 6 ack 40 ------- 1 4.0 0.0 13 49
- 1.196739 4 6 ack 40 ------- 1 4.0 0.0 13 49
r 1.201146 2 1 tcp 1040 ------- 2 5.0 1.0 9 38
+ 1.201146 1 2 ack 40 ------- 2 1.0 5.0 9 50
- 1.201146 1 2 ack 40 ------- 2 1.0 5.0 9 50
r 1.203379 6 4 tcp 1040 ------- 1 0.0 4.0 14 35
h 1.203379 4 6 ack 40 ------- 1 4.0 0.0 14 51
r 1.206794 6 3 ack 40 ------- 1 4.0 0.0 13 49
+ 1.206794 3 2 ack 40 ------- 1 4.0 0.0 13 49
- 1.206794 3 2 ack 40 ------- 1 4.0 0.0 13 49
r 1.206954 3 2 tcp 1040 ------- 2 5.0 1.0 10 39
+ 1.206954 2 1 tcp 1040 ------- 2 5.0 1.0 10 39
- 1.206954 2 1 tcp 1040 ------- 2 5.0 1.0 10 39
r 1.211178 1 2 ack 40 ------- 2 1.0 5.0 9 50
+ 1.211178 2 3 ack 40 ------- 2 1.0 5.0 9 50
- 1.211178 2 3 ack 40 ------- 2 1.0 5.0 9 50
+ 1.213379 4 6 ack 40 ------- 1 4.0 0.0 14 51
- 1.213379 4 6 ack 40 ------- 1 4.0 0.0 14 51
r 1.217786 2 1 tcp 1040 ------- 2 5.0 1.0 10 39
+ 1.217786 1 2 ack 40 ------- 2 1.0 5.0 10 52
- 1.217786 1 2 ack 40 ------- 2 1.0 5.0 10 52
r 1.223434 6 3 ack 40 ------- 1 4.0 0.0 14 51
+ 1.223434 3 2 ack 40 ------- 1 4.0 0.0 14 51
- 1.223434 3 2 ack 40 ------- 1 4.0 0.0 14 51
r 1.223594 3 2 tcp 1040 ------- 2 5.0 1.0 11 40
+ 1.223594 2 1 tcp 1040 ------- 2 5.0 1.0 11 40
- 1.223594 2 1 tcp 1040 ------- 2 5.0 1.0 11 40
r 1.224234 3 2 ack 40 ------- 1 4.0 0.0 7 41
+ 1.224234 2 0 ack 40 ------- 1 4.0 0.0 7 41
- 1.224234 2 0 ack 40 ------- 1 4.0 0.0 7 41
r 1.224874 3 2 ack 40 ------- 1 4.0 0.0 8 42
+ 1.224874 2 0 ack 40 ------- 1 4.0 0.0 8 42
- 1.224874 2 0 ack 40 ------- 1 4.0 0.0 8 42
r 1.227818 1 2 ack 40 ------- 2 1.0 5.0 10 52
+ 1.227818 2 3 ack 40 ------- 2 1.0 5.0 10 52
- 1.227818 2 3 ack 40 ------- 2 1.0 5.0 10 52
r 1.234266 2 0 ack 40 ------- 1 4.0 0.0 7 41
+ 1.234266 0 2 tcp 1040 ------- 1 0.0 4.0 15 53
- 1.234266 0 2 tcp 1040 ------- 1 0.0 4.0 15 53
+ 1.234266 0 2 tcp 1040 ------- 1 0.0 4.0 16 54
r 1.234426 2 1 tcp 1040 ------- 2 5.0 1.0 11 40
+ 1.234426 1 2 ack 40 ------- 2 1.0 5.0 11 55
- 1.234426 1 2 ack 40 ------- 2 1.0 5.0 11 55
r 1.234906 2 0 ack 40 ------- 1 4.0 0.0 8 42
+ 1.234906 0 2 tcp 1040 ------- 1 0.0 4.0 17 56
+ 1.234906 0 2 tcp 1040 ------- 1 0.0 4.0 18 57
- 1.235098 0 2 tcp 1040 ------- 1 0.0 4.0 16 54
- 1.23593 0 2 tcp 1040 ------- 1 0.0 4.0 17 56
- 1.236762 0 2 tcp 1040 ------- 1 0.0 4.0 18 57
r 1.240874 3 2 ack 40 ------- 1 4.0 0.0 9 43
+ 1.240874 2 0 ack 40 ------- 1 4.0 0.0 9 43
- 1.240874 2 0 ack 40 ------- 1 4.0 0.0 9 43
r 1.244458 1 2 ack 40 ------- 2 1.0 5.0 11 55
+ 1.244458 2 3 ack 40 ------- 2 1.0 5.0 11 55
- 1.244458 2 3 ack 40 ------- 2 1.0 5.0 11 55
r 1.245098 0 2 tcp 1040 ------- 1 0.0 4.0 15 53
+ 1.245098 2 3 tcp 1040 ------- 1 0.0 4.0 15 53
- 1.245098 2 3 tcp 1040 ------- 1 0.0 4.0 15 53
r 1.24593 0 2 tcp 1040 ------- 1 0.0 4.0 16 54
+ 1.24593 2 3 tcp 1040 ------- 1 0.0 4.0 16 54
r 1.246762 0 2 tcp 1040 ------- 1 0.0 4.0 17 56
+ 1.246762 2 3 tcp 1040 ------- 1 0.0 4.0 17 56
r 1.247594 0 2 tcp 1040 ------- 1 0.0 4.0 18 57
+ 1.247594 2 3 tcp 1040 ------- 1 0.0 4.0 18 57
r 1.250906 2 0 ack 40 ------- 1 4.0 0.0 9 43
+ 1.250906 0 2 tcp 1040 ------- 1 0.0 4.0 19 58
- 1.250906 0 2 tcp 1040 ------- 1 0.0 4.0 19 58
r 1.257514 3 2 ack 40 ------- 1 4.0 0.0 10 44
+ 1.257514 2 0 ack 40 ------- 1 4.0 0.0 10 44
- 1.257514 2 0 ack 40 ------- 1 4.0 0.0 10 44
- 1.261738 2 3 tcp 1040 ------- 1 0.0 4.0 16 54
r 1.261738 0 2 tcp 1040 ------- 1 0.0 4.0 19 58
+ 1.261738 2 3 tcp 1040 ------- 1 0.0 4.0 19 58
r 1.267546 2 0 ack 40 ------- 1 4.0 0.0 10 44
+ 1.267546 0 2 tcp 1040 ------- 1 0.0 4.0 20 59
- 1.267546 0 2 tcp 1040 ------- 1 0.0 4.0 20 59
r 1.274154 3 2 ack 40 ------- 1 4.0 0.0 11 45
+ 1.274154 2 0 ack 40 ------- 1 4.0 0.0 11 45
- 1.274154 2 0 ack 40 ------- 1 4.0 0.0 11 45
- 1.278378 2 3 tcp 1040 ------- 1 0.0 4.0 17 56
r 1.278378 0 2 tcp 1040 ------- 1 0.0 4.0 20 59
+ 1.278378 2 3 tcp 1040 ------- 1 0.0 4.0 20 59
r 1.278538 2 3 ack 40 ------- 2 1.0 5.0 7 46
h 1.278538 3 6 ack 40 ------- 2 1.0 5.0 7 46
r 1.284186 2 0 ack 40 ------- 1 4.0 0.0 11 45
+ 1.284186 0 2 tcp 1040 ------- 1 0.0 4.0 21 60
- 1.284186 0 2 tcp 1040 ------- 1 0.0 4.0 21 60
+ 1.288538 3 6 ack 40 ------- 2 1.0 5.0 7 46
- 1.288538 3 6 ack 40 ------- 2 1.0 5.0 7 46
r 1.290794 3 2 ack 40 ------- 1 4.0 0.0 12 47
+ 1.290794 2 0 ack 40 ------- 1 4.0 0.0 12 47
- 1.290794 2 0 ack 40 ------- 1 4.0 0.0 12 47
- 1.295018 2 3 tcp 1040 ------- 1 0.0 4.0 18 57
r 1.295018 0 2 tcp 1040 ------- 1 0.0 4.0 21 60
+ 1.295018 2 3 tcp 1040 ------- 1 0.0 4.0 21 60
r 1.295178 2 3 ack 40 ------- 2 1.0 5.0 8 48
h 1.295178 3 6 ack 40 ------- 2 1.0 5.0 8 48
r 1.298594 6 5 ack 40 ------- 2 1.0 5.0 7 46
h 1.298594 5 6 tcp 1040 ------- 2 5.0 1.0 12 61
r 1.300826 2 0 ack 40 ------- 1 4.0 0.0 12 47
+ 1.300826 0 2 tcp 1040 ------- 1 0.0 4.0 22 62
- 1.300826 0 2 tcp 1040 ------- 1 0.0 4.0 22 62
+ 1.305178 3 6 ack 40 ------- 2 1.0 5.0 8 48
- 1.305178 3 6 ack 40 ------- 2 1.0 5.0 8 48
r 1.307434 3 2 ack 40 ------- 1 4.0 0.0 13 49
+ 1.307434 2 0 ack 40 ------- 1 4.0 0.0 13 49
- 1.307434 2 0 ack 40 ------- 1 4.0 0.0 13 49
+ 1.308594 5 6 tcp 1040 ------- 2 5.0 1.0 12 61
- 1.308594 5 6 tcp 1040 ------- 2 5.0 1.0 12 61
- 1.311658 2 3 tcp 1040 ------- 1 0.0 4.0 19 58
r 1.311658 0 2 tcp 1040 ------- 1 0.0 4.0 22 62
+ 1.311658 2 3 tcp 1040 ------- 1 0.0 4.0 22 62
r 1.311818 2 3 ack 40 ------- 2 1.0 5.0 9 50
h 1.311818 3 6 ack 40 ------- 2 1.0 5.0 9 50
r 1.315234 6 5 ack 40 ------- 2 1.0 5.0 8 48
h 1.315234 5 6 tcp 1040 ------- 2 5.0 1.0 13 63
r 1.317466 2 0 ack 40 ------- 1 4.0 0.0 13 49
+ 1.317466 0 2 tcp 1040 ------- 1 0.0 4.0 23 64
- 1.317466 0 2 tcp 1040 ------- 1 0.0 4.0 23 64
r 1.319441 6 3 tcp 1040 ------- 2 5.0 1.0 12 61
+ 1.319441 3 2 tcp 1040 ------- 2 5.0 1.0 12 61
- 1.319441 3 2 tcp 1040 ------- 2 5.0 1.0 12 61
+ 1.321818 3 6 ack 40 ------- 2 1.0 5.0 9 50
- 1.321818 3 6 ack 40 ------- 2 1.0 5.0 9 50
r 1.324074 3 2 ack 40 ------- 1 4.0 0.0 14 51
+ 1.324074 2 0 ack 40 ------- 1 4.0 0.0 14 51
- 1.324074 2 0 ack 40 ------- 1 4.0 0.0 14 51
+ 1.325234 5 6 tcp 1040 ------- 2 5.0 1.0 13 63
- 1.325234 5 6 tcp 1040 ------- 2 5.0 1.0 13 63
- 1.328298 2 3 tcp 1040 ------- 1 0.0 4.0 20 59
r 1.328298 0 2 tcp 1040 ------- 1 0.0 4.0 23 64
+ 1.328298 2 3 tcp 1040 ------- 1 0.0 4.0 23 64
r 1.328458 2 3 ack 40 ------- 2 1.0 5.0 10 52
h 1.328458 3 6 ack 40 ------- 2 1.0 5.0 10 52
r 1.331874 6 5 ack 40 ------- 2 1.0 5.0 9 50
h 1.331874 5 6 tcp 1040 ------- 2 5.0 1.0 14 65
r 1.334106 2 0 ack 40 ------- 1 4.0 0.0 14 51
+ 1.334106 0 2 tcp 1040 ------- 1 0.0 4.0 24 66
- 1.334106 0 2 tcp 1040 ------- 1 0.0 4.0 24 66
r 1.336081 6 3 tcp 1040 ------- 2 5.0 1.0 13 63
+ 1.336081 3 2 tcp 1040 ------- 2 5.0 1.0 13 63
- 1.336081 3 2 tcp 1040 ------- 2 5.0 1.0 13 63
+ 1.338458 3 6 ack 40 ------- 2 1.0 5.0 10 52
- 1.338458 3 6 ack 40 ------- 2 1.0 5.0 10 52
+ 1.341874 5 6 tcp 1040 ------- 2 5.0 1.0 14 65
- 1.341874 5 6 tcp 1040 ------- 2 5.0 1.0 14 65
- 1.344938 2 3 tcp 1040 ------- 1 0.0 4.0 21 60
r 1.344938 0 2 tcp 1040 ------- 1 0.0 4.0 24 66
+ 1.344938 2 3 tcp 1040 ------- 1 0.0 4.0 24 66
r 1.345098 2 3 ack 40 ------- 2 1.0 5.0 11 55
h 1.345098 3 6 ack 40 ------- 2 1.0 5.0 11 55
r 1.348514 6 5 ack 40 ------- 2 1.0 5.0 10 52
h 1.348514 5 6 tcp 1040 ------- 2 5.0 1.0 15 67
r 1.352721 6 3 tcp 1040 ------- 2 5.0 1.0 14 65
+ 1.352721 3 2 tcp 1040 ------- 2 5.0 1.0 14 65
- 1.352721 3 2 tcp 1040 ------- 2 5.0 1.0 14 65
+ 1.355098 3 6 ack 40 ------- 2 1.0 5.0 11 55
- 1.355098 3 6 ack 40 ------- 2 1.0 5.0 11 55
+ 1.358514 5 6 tcp 1040 ------- 2 5.0 1.0 15 67
- 1.358514 5 6 tcp 1040 ------- 2 5.0 1.0 15 67
- 1.361578 2 3 tcp 1040 ------- 1 0.0 4.0 22 62
r 1.361738 2 3 tcp 1040 ------- 1 0.0 4.0 15 53
h 1.361738 3 6 tcp 1040 ------- 1 0.0 4.0 15 53
r 1.365154 6 5 ack 40 ------- 2 1.0 5.0 11 55
h 1.365154 5 6 tcp 1040 ------- 2 5.0 1.0 16 68
r 1.369361 6 3 tcp 1040 ------- 2 5.0 1.0 15 67
+ 1.369361 3 2 tcp 1040 ------- 2 5.0 1.0 15 67
- 1.369361 3 2 tcp 1040 ------- 2 5.0 1.0 15 67
+ 1.371738 3 6 tcp 1040 ------- 1 0.0 4.0 15 53
- 1.371738 3 6 tcp 1040 ------- 1 0.0 4.0 15 53
+ 1.375154 5 6 tcp 1040 ------- 2 5.0 1.0 16 68
- 1.375154 5 6 tcp 1040 ------- 2 5.0 1.0 16 68
- 1.378218 2 3 tcp 1040 ------- 1 0.0 4.0 23 64
r 1.378378 2 3 tcp 1040 ------- 1 0.0 4.0 16 54
h 1.378378 3 6 tcp 1040 ------- 1 0.0 4.0 16 54
r 1.382586 6 4 tcp 1040 ------- 1 0.0 4.0 15 53
h 1.382586 4 6 ack 40 ------- 1 4.0 0.0 15 69
r 1.386001 6 3 tcp 1040 ------- 2 5.0 1.0 16 68
+ 1.386001 3 2 tcp 1040 ------- 2 5.0 1.0 16 68
- 1.386001 3 2 tcp 1040 ------- 2 5.0 1.0 16 68
+ 1.388378 3 6 tcp 1040 ------- 1 0.0 4.0 16 54
- 1.388378 3 6 tcp 1040 ------- 1 0.0 4.0 16 54
+ 1.392586 4 6 ack 40 ------- 1 4.0 0.0 15 69
- 1.392586 4 6 ack 40 ------- 1 4.0 0.0 15 69
- 1.394858 2 3 tcp 1040 ------- 1 0.0 4.0 24 66
r 1.395018 2 3 tcp 1040 ------- 1 0.0 4.0 17 56
h 1.395018 3 6 tcp 1040 ------- 1 0.0 4.0 17 56
r 1.399226 6 4 tcp 1040 ------- 1 0.0 4.0 16 54
h 1.399226 4 6 ack 40 ------- 1 4.0 0.0 16 70
r 1.402641 6 3 ack 40 ------- 1 4.0 0.0 15 69
+ 1.402641 3 2 ack 40 ------- 1 4.0 0.0 15 69
- 1.402641 3 2 ack 40 ------- 1 4.0 0.0 15 69
+ 1.405018 3 6 tcp 1040 ------- 1 0.0 4.0 17 56
- 1.405018 3 6 tcp 1040 ------- 1 0.0 4.0 17 56
+ 1.409226 4 6 ack 40 ------- 1 4.0 0.0 16 70
- 1.409226 4 6 ack 40 ------- 1 4.0 0.0 16 70
r 1.411658 2 3 tcp 1040 ------- 1 0.0 4.0 18 57
h 1.411658 3 6 tcp 1040 ------- 1 0.0 4.0 18 57
r 1.415866 6 4 tcp 1040 ------- 1 0.0 4.0 17 56
h 1.415866 4 6 ack 40 ------- 1 4.0 0.0 17 71
r 1.419281 6 3 ack 40 ------- 1 4.0 0.0 16 70
+ 1.419281 3 2 ack 40 ------- 1 4.0 0.0 16 70