+ 0.1 0 2 tcp 40 ------- 1 0.0 3.0 0 0
- 0.1 0 2 tcp 40 ------- 1 0.0 3.0 0 0
r 0.11032 0 2 tcp 40 ------- 1 0.0 3.0 0 0
+ 0.11032 2 3 tcp 40 ------- 1 0.0 3.0 0 0
- 0.11032 2 3 tcp 40 ------- 1 0.0 3.0 0 0
r 0.12064 2 3 tcp 40 ------- 1 0.0 3.0 0 0
+ 0.12064 3 2 ack 40 ------- 1 3.0 0.0 0 1
- 0.12064 3 2 ack 40 ------- 1 3.0 0.0 0 1
r 0.13096 3 2 ack 40 ------- 1 3.0 0.0 0 1
+ 0.13096 2 0 ack 40 ------- 1 3.0 0.0 0 1
- 0.13096 2 0 ack 40 ------- 1 3.0 0.0 0 1
r 0.14128 2 0 ack 40 ------- 1 3.0 0.0 0 1
+ 0.14128 0 2 tcp 1040 ------- 1 0.0 3.0 1 2
- 0.14128 0 2 tcp 1040 ------- 1 0.0 3.0 1 2
+ 0.14128 0 2 tcp 1040 ------- 1 0.0 3.0 2 3
- 0.1496 0 2 tcp 1040 ------- 1 0.0 3.0 2 3
r 0.1596 0 2 tcp 1040 ------- 1 0.0 3.0 1 2
+ 0.1596 2 3 tcp 1040 ------- 1 0.0 3.0 1 2
- 0.1596 2 3 tcp 1040 ------- 1 0.0 3.0 1 2
r 0.16792 0 2 tcp 1040 ------- 1 0.0 3.0 2 3
+ 0.16792 2 3 tcp 1040 ------- 1 0.0 3.0 2 3
- 0.16792 2 3 tcp 1040 ------- 1 0.0 3.0 2 3
r 0.17792 2 3 tcp 1040 ------- 1 0.0 3.0 1 2
+ 0.17792 3 2 ack 40 ------- 1 3.0 0.0 1 4
- 0.17792 3 2 ack 40 ------- 1 3.0 0.0 1 4
+ 0.181832 1 2 tcp 40 ------- 2 1.0 3.1 0 5
- 0.181832 1 2 tcp 40 ------- 2 1.0 3.1 0 5
r 0.18624 2 3 tcp 1040 ------- 1 0.0 3.0 2 3
+ 0.18624 3 2 ack 40 ------- 1 3.0 0.0 2 6
- 0.18624 3 2 ack 40 ------- 1 3.0 0.0 2 6
r 0.18824 3 2 ack 40 ------- 1 3.0 0.0 1 4
+ 0.18824 2 0 ack 40 ------- 1 3.0 0.0 1 4
- 0.18824 2 0 ack 40 ------- 1 3.0 0.0 1 4
r 0.192152 1 2 tcp 40 ------- 2 1.0 3.1 0 5
+ 0.192152 2 3 tcp 40 ------- 2 1.0 3.1 0 5
- 0.192152 2 3 tcp 40 ------- 2 1.0 3.1 0 5
r 0.19656 3 2 ack 40 ------- 1 3.0 0.0 2 6
+ 0.19656 2 0 ack 40 ------- 1 3.0 0.0 2 6
- 0.19656 2 0 ack 40 ------- 1 3.0 0.0 2 6
r 0.19856 2 0 ack 40 ------- 1 3.0 0.0 1 4
+ 0.19856 0 2 tcp 1040 ------- 1 0.0 3.0 3 7
- 0.19856 0 2 tcp 1040 ------- 1 0.0 3.0 3 7
+ 0.19856 0 2 tcp 1040 ------- 1 0.0 3.0 4 8
r 0.202472 2 3 tcp 40 ------- 2 1.0 3.1 0 5
+ 0.202472 3 2 ack 40 ------- 2 3.1 1.0 0 9
- 0.202472 3 2 ack 40 ------- 2 3.1 1.0 0 9
r 0.20688 2 0 ack 40 ------- 1 3.0 0.0 2 6
+ 0.20688 0 2 tcp 1040 ------- 1 0.0 3.0 5 10
+ 0.20688 0 2 tcp 1040 ------- 1 0.0 3.0 6 11
- 0.20688 0 2 tcp 1040 ------- 1 0.0 3.0 4 8
r 0.212792 3 2 ack 40 ------- 2 3.1 1.0 0 9
+ 0.212792 2 1 ack 40 ------- 2 3.1 1.0 0 9
- 0.212792 2 1 ack 40 ------- 2 3.1 1.0 0 9
- 0.2152 0 2 tcp 1040 ------- 1 0.0 3.0 5 10
r 0.21688 0 2 tcp 1040 ------- 1 0.0 3.0 3 7
+ 0.21688 2 3 tcp 1040 ------- 1 0.0 3.0 3 7
- 0.21688 2 3 tcp 1040 ------- 1 0.0 3.0 3 7
r 0.223112 2 1 ack 40 ------- 2 3.1 1.0 0 9
+ 0.223112 1 2 tcp 1040 ------- 2 1.0 3.1 1 12
- 0.223112 1 2 tcp 1040 ------- 2 1.0 3.1 1 12
+ 0.223112 1 2 tcp 1040 ------- 2 1.0 3.1 2 13
- 0.22352 0 2 tcp 1040 ------- 1 0.0 3.0 6 11
r 0.2252 0 2 tcp 1040 ------- 1 0.0 3.0 4 8
+ 0.2252 2 3 tcp 1040 ------- 1 0.0 3.0 4 8
- 0.2252 2 3 tcp 1040 ------- 1 0.0 3.0 4 8
- 0.231432 1 2 tcp 1040 ------- 2 1.0 3.1 2 13
r 0.23352 0 2 tcp 1040 ------- 1 0.0 3.0 5 10
+ 0.23352 2 3 tcp 1040 ------- 1 0.0 3.0 5 10
- 0.23352 2 3 tcp 1040 ------- 1 0.0 3.0 5 10
r 0.2352 2 3 tcp 1040 ------- 1 0.0 3.0 3 7
+ 0.2352 3 2 ack 40 ------- 1 3.0 0.0 3 14
- 0.2352 3 2 ack 40 ------- 1 3.0 0.0 3 14
r 0.241432 1 2 tcp 1040 ------- 2 1.0 3.1 1 12
+ 0.241432 2 3 tcp 1040 ------- 2 1.0 3.1 1 12
r 0.24184 0 2 tcp 1040 ------- 1 0.0 3.0 6 11
+ 0.24184 2 3 tcp 1040 ------- 1 0.0 3.0 6 11
- 0.24184 2 3 tcp 1040 ------- 2 1.0 3.1 1 12
r 0.24352 2 3 tcp 1040 ------- 1 0.0 3.0 4 8
+ 0.24352 3 2 ack 40 ------- 1 3.0 0.0 4 15
- 0.24352 3 2 ack 40 ------- 1 3.0 0.0 4 15
r 0.24552 3 2 ack 40 ------- 1 3.0 0.0 3 14
+ 0.24552 2 0 ack 40 ------- 1 3.0 0.0 3 14
- 0.24552 2 0 ack 40 ------- 1 3.0 0.0 3 14
r 0.249752 1 2 tcp 1040 ------- 2 1.0 3.1 2 13
+ 0.249752 2 3 tcp 1040 ------- 2 1.0 3.1 2 13
- 0.25016 2 3 tcp 1040 ------- 1 0.0 3.0 6 11
r 0.25184 2 3 tcp 1040 ------- 1 0.0 3.0 5 10
+ 0.25184 3 2 ack 40 ------- 1 3.0 0.0 5 16
- 0.25184 3 2 ack 40 ------- 1 3.0 0.0 5 16
r 0.25384 3 2 ack 40 ------- 1 3.0 0.0 4 15
+ 0.25384 2 0 ack 40 ------- 1 3.0 0.0 4 15
- 0.25384 2 0 ack 40 ------- 1 3.0 0.0 4 15
r 0.25584 2 0 ack 40 ------- 1 3.0 0.0 3 14
+ 0.25584 0 2 tcp 1040 ------- 1 0.0 3.0 7 17
- 0.25584 0 2 tcp 1040 ------- 1 0.0 3.0 7 17
+ 0.25584 0 2 tcp 1040 ------- 1 0.0 3.0 8 18
- 0.25848 2 3 tcp 1040 ------- 2 1.0 3.1 2 13
r 0.26016 2 3 tcp 1040 ------- 2 1.0 3.1 1 12
+ 0.26016 3 2 ack 40 ------- 2 3.1 1.0 1 19
- 0.26016 3 2 ack 40 ------- 2 3.1 1.0 1 19
r 0.26216 3 2 ack 40 ------- 1 3.0 0.0 5 16
+ 0.26216 2 0 ack 40 ------- 1 3.0 0.0 5 16
- 0.26216 2 0 ack 40 ------- 1 3.0 0.0 5 16
r 0.26416 2 0 ack 40 ------- 1 3.0 0.0 4 15
+ 0.26416 0 2 tcp 1040 ------- 1 0.0 3.0 9 20
+ 0.26416 0 2 tcp 1040 ------- 1 0.0 3.0 10 21
- 0.26416 0 2 tcp 1040 ------- 1 0.0 3.0 8 18
r 0.26848 2 3 tcp 1040 ------- 1 0.0 3.0 6 11
+ 0.26848 3 2 ack 40 ------- 1 3.0 0.0 6 22
- 0.26848 3 2 ack 40 ------- 1 3.0 0.0 6 22
r 0.27048 3 2 ack 40 ------- 2 3.1 1.0 1 19
+ 0.27048 2 1 ack 40 ------- 2 3.1 1.0 1 19
- 0.27048 2 1 ack 40 ------- 2 3.1 1.0 1 19
r 0.27248 2 0 ack 40 ------- 1 3.0 0.0 5 16
+ 0.27248 0 2 tcp 1040 ------- 1 0.0 3.0 11 23
+ 0.27248 0 2 tcp 1040 ------- 1 0.0 3.0 12 24
- 0.27248 0 2 tcp 1040 ------- 1 0.0 3.0 9 20
r 0.27416 0 2 tcp 1040 ------- 1 0.0 3.0 7 17
+ 0.27416 2 3 tcp 1040 ------- 1 0.0 3.0 7 17
- 0.27416 2 3 tcp 1040 ------- 1 0.0 3.0 7 17
r 0.2768 2 3 tcp 1040 ------- 2 1.0 3.1 2 13
+ 0.2768 3 2 ack 40 ------- 2 3.1 1.0 2 25
- 0.2768 3 2 ack 40 ------- 2 3.1 1.0 2 25
r 0.2788 3 2 ack 40 ------- 1 3.0 0.0 6 22
+ 0.2788 2 0 ack 40 ------- 1 3.0 0.0 6 22
- 0.2788 2 0 ack 40 ------- 1 3.0 0.0 6 22
r 0.2808 2 1 ack 40 ------- 2 3.1 1.0 1 19
- 0.2808 0 2 tcp 1040 ------- 1 0.0 3.0 10 21
r 0.28248 0 2 tcp 1040 ------- 1 0.0 3.0 8 18
+ 0.28248 2 3 tcp 1040 ------- 1 0.0 3.0 8 18
- 0.28248 2 3 tcp 1040 ------- 1 0.0 3.0 8 18
r 0.28712 3 2 ack 40 ------- 2 3.1 1.0 2 25
+ 0.28712 2 1 ack 40 ------- 2 3.1 1.0 2 25
- 0.28712 2 1 ack 40 ------- 2 3.1 1.0 2 25
r 0.28912 2 0 ack 40 ------- 1 3.0 0.0 6 22
+ 0.28912 0 2 tcp 1040 ------- 1 0.0 3.0 13 26
+ 0.28912 0 2 tcp 1040 ------- 1 0.0 3.0 14 27
- 0.28912 0 2 tcp 1040 ------- 1 0.0 3.0 11 23
r 0.2908 0 2 tcp 1040 ------- 1 0.0 3.0 9 20
+ 0.2908 2 3 tcp 1040 ------- 1 0.0 3.0 9 20
- 0.2908 2 3 tcp 1040 ------- 1 0.0 3.0 9 20
r 0.29248 2 3 tcp 1040 ------- 1 0.0 3.0 7 17
+ 0.29248 3 2 ack 40 ------- 1 3.0 0.0 7 28
- 0.29248 3 2 ack 40 ------- 1 3.0 0.0 7 28
r 0.29744 2 1 ack 40 ------- 2 3.1 1.0 2 25
- 0.29744 0 2 tcp 1040 ------- 1 0.0 3.0 12 24
r 0.29912 0 2 tcp 1040 ------- 1 0.0 3.0 10 21
+ 0.29912 2 3 tcp 1040 ------- 1 0.0 3.0 10 21
- 0.29912 2 3 tcp 1040 ------- 1 0.0 3.0 10 21
r 0.3008 2 3 tcp 1040 ------- 1 0.0 3.0 8 18
+ 0.3008 3 2 ack 40 ------- 1 3.0 0.0 8 29
- 0.3008 3 2 ack 40 ------- 1 3.0 0.0 8 29
r 0.3028 3 2 ack 40 ------- 1 3.0 0.0 7 28
+ 0.3028 2 0 ack 40 ------- 1 3.0 0.0 7 28
- 0.3028 2 0 ack 40 ------- 1 3.0 0.0 7 28
- 0.30576 0 2 tcp 1040 ------- 1 0.0 3.0 13 26
r 0.30744 0 2 tcp 1040 ------- 1 0.0 3.0 11 23
+ 0.30744 2 3 tcp 1040 ------- 1 0.0 3.0 11 23
- 0.30744 2 3 tcp 1040 ------- 1 0.0 3.0 11 23
r 0.30912 2 3 tcp 1040 ------- 1 0.0 3.0 9 20
+ 0.30912 3 2 ack 40 ------- 1 3.0 0.0 9 30
- 0.30912 3 2 ack 40 ------- 1 3.0 0.0 9 30
r 0.31112 3 2 ack 40 ------- 1 3.0 0.0 8 29
+ 0.31112 2 0 ack 40 ------- 1 3.0 0.0 8 29
- 0.31112 2 0 ack 40 ------- 1 3.0 0.0 8 29
r 0.31312 2 0 ack 40 ------- 1 3.0 0.0 7 28
+ 0.31312 0 2 tcp 1040 ------- 1 0.0 3.0 15 31
+ 0.31312 0 2 tcp 1040 ------- 1 0.0 3.0 16 32
- 0.31408 0 2 tcp 1040 ------- 1 0.0 3.0 14 27
r 0.31576 0 2 tcp 1040 ------- 1 0.0 3.0 12 24
+ 0.31576 2 3 tcp 1040 ------- 1 0.0 3.0 12 24
- 0.31576 2 3 tcp 1040 ------- 1 0.0 3.0 12 24
r 0.31744 2 3 tcp 1040 ------- 1 0.0 3.0 10 21
+ 0.31744 3 2 ack 40 ------- 1 3.0 0.0 10 33
- 0.31744 3 2 ack 40 ------- 1 3.0 0.0 10 33
r 0.31944 3 2 ack 40 ------- 1 3.0 0.0 9 30
+ 0.31944 2 0 ack 40 ------- 1 3.0 0.0 9 30
- 0.31944 2 0 ack 40 ------- 1 3.0 0.0 9 30
+ 0.320419 1 2 tcp 1040 ------- 2 1.0 3.1 3 34
- 0.320419 1 2 tcp 1040 ------- 2 1.0 3.1 3 34
r 0.32144 2 0 ack 40 ------- 1 3.0 0.0 8 29
+ 0.32144 0 2 tcp 1040 ------- 1 0.0 3.0 17 35
+ 0.32144 0 2 tcp 1040 ------- 1 0.0 3.0 18 36
- 0.3224 0 2 tcp 1040 ------- 1 0.0 3.0 15 31
r 0.32408 0 2 tcp 1040 ------- 1 0.0 3.0 13 26
+ 0.32408 2 3 tcp 1040 ------- 1 0.0 3.0 13 26
- 0.32408 2 3 tcp 1040 ------- 1 0.0 3.0 13 26
r 0.32576 2 3 tcp 1040 ------- 1 0.0 3.0 11 23
+ 0.32576 3 2 ack 40 ------- 1 3.0 0.0 11 37
- 0.32576 3 2 ack 40 ------- 1 3.0 0.0 11 37
r 0.32776 3 2 ack 40 ------- 1 3.0 0.0 10 33
+ 0.32776 2 0 ack 40 ------- 1 3.0 0.0 10 33
- 0.32776 2 0 ack 40 ------- 1 3.0 0.0 10 33
r 0.32976 2 0 ack 40 ------- 1 3.0 0.0 9 30
+ 0.32976 0 2 tcp 1040 ------- 1 0.0 3.0 19 38
+ 0.32976 0 2 tcp 1040 ------- 1 0.0 3.0 20 39
- 0.33072 0 2 tcp 1040 ------- 1 0.0 3.0 16 32
r 0.3324 0 2 tcp 1040 ------- 1 0.0 3.0 14 27
+ 0.3324 2 3 tcp 1040 ------- 1 0.0 3.0 14 27
- 0.3324 2 3 tcp 1040 ------- 1 0.0 3.0 14 27
r 0.33408 2 3 tcp 1040 ------- 1 0.0 3.0 12 24
+ 0.33408 3 2 ack 40 ------- 1 3.0 0.0 12 40
- 0.33408 3 2 ack 40 ------- 1 3.0 0.0 12 40
r 0.33608 3 2 ack 40 ------- 1 3.0 0.0 11 37
+ 0.33608 2 0 ack 40 ------- 1 3.0 0.0 11 37
- 0.33608 2 0 ack 40 ------- 1 3.0 0.0 11 37
r 0.33808 2 0 ack 40 ------- 1 3.0 0.0 10 33
+ 0.33808 0 2 tcp 1040 ------- 1 0.0 3.0 21 41
+ 0.33808 0 2 tcp 1040 ------- 1 0.0 3.0 22 42
r 0.338739 1 2 tcp 1040 ------- 2 1.0 3.1 3 34
+ 0.338739 2 3 tcp 1040 ------- 2 1.0 3.1 3 34
- 0.33904 0 2 tcp 1040 ------- 1 0.0 3.0 17 35
+ 0.340695 1 2 tcp 1040 ------- 2 1.0 3.1 4 43
- 0.340695 1 2 tcp 1040 ------- 2 1.0 3.1 4 43
r 0.34072 0 2 tcp 1040 ------- 1 0.0 3.0 15 31
+ 0.34072 2 3 tcp 1040 ------- 1 0.0 3.0 15 31
- 0.34072 2 3 tcp 1040 ------- 2 1.0 3.1 3 34
r 0.3424 2 3 tcp 1040 ------- 1 0.0 3.0 13 26
+ 0.3424 3 2 ack 40 ------- 1 3.0 0.0 13 44
- 0.3424 3 2 ack 40 ------- 1 3.0 0.0 13 44
r 0.3444 3 2 ack 40 ------- 1 3.0 0.0 12 40
+ 0.3444 2 0 ack 40 ------- 1 3.0 0.0 12 40
- 0.3444 2 0 ack 40 ------- 1 3.0 0.0 12 40
r 0.3464 2 0 ack 40 ------- 1 3.0 0.0 11 37
+ 0.3464 0 2 tcp 1040 ------- 1 0.0 3.0 23 45
+ 0.3464 0 2 tcp 1040 ------- 1 0.0 3.0 24 46
- 0.34736 0 2 tcp 1040 ------- 1 0.0 3.0 18 36
r 0.34904 0 2 tcp 1040 ------- 1 0.0 3.0 16 32
+ 0.34904 2 3 tcp 1040 ------- 1 0.0 3.0 16 32
- 0.34904 2 3 tcp 1040 ------- 1 0.0 3.0 15 31
r 0.35072 2 3 tcp 1040 ------- 1 0.0 3.0 14 27
+ 0.35072 3 2 ack 40 ------- 1 3.0 0.0 14 47
- 0.35072 3 2 ack 40 ------- 1 3.0 0.0 14 47
r 0.35272 3 2 ack 40 ------- 1 3.0 0.0 13 44
+ 0.35272 2 0 ack 40 ------- 1 3.0 0.0 13 44
- 0.35272 2 0 ack 40 ------- 1 3.0 0.0 13 44
r 0.35472 2 0 ack 40 ------- 1 3.0 0.0 12 40
+ 0.35472 0 2 tcp 1040 ------- 1 0.0 3.0 25 48
+ 0.35472 0 2 tcp 1040 ------- 1 0.0 3.0 26 49
- 0.35568 0 2 tcp 1040 ------- 1 0.0 3.0 19 38
r 0.35736 0 2 tcp 1040 ------- 1 0.0 3.0 17 35
+ 0.35736 2 3 tcp 1040 ------- 1 0.0 3.0 17 35
- 0.35736 2 3 tcp 1040 ------- 1 0.0 3.0 16 32
r 0.359015 1 2 tcp 1040 ------- 2 1.0 3.1 4 43
+ 0.359015 2 3 tcp 1040 ------- 2 1.0 3.1 4 43
r 0.35904 2 3 tcp 1040 ------- 2 1.0 3.1 3 34
+ 0.35904 3 2 ack 40 ------- 2 3.1 1.0 3 50
- 0.35904 3 2 ack 40 ------- 2 3.1 1.0 3 50
r 0.36104 3 2 ack 40 ------- 1 3.0 0.0 14 47
+ 0.36104 2 0 ack 40 ------- 1 3.0 0.0 14 47
- 0.36104 2 0 ack 40 ------- 1 3.0 0.0 14 47
r 0.36304 2 0 ack 40 ------- 1 3.0 0.0 13 44
+ 0.36304 0 2 tcp 1040 ------- 1 0.0 3.0 27 51
+ 0.36304 0 2 tcp 1040 ------- 1 0.0 3.0 28 52
- 0.364 0 2 tcp 1040 ------- 1 0.0 3.0 20 39
r 0.36568 0 2 tcp 1040 ------- 1 0.0 3.0 18 36
+ 0.36568 2 3 tcp 1040 ------- 1 0.0 3.0 18 36
- 0.36568 2 3 tcp 1040 ------- 1 0.0 3.0 17 35
r 0.36736 2 3 tcp 1040 ------- 1 0.0 3.0 15 31
+ 0.36736 3 2 ack 40 ------- 1 3.0 0.0 15 53
- 0.36736 3 2 ack 40 ------- 1 3.0 0.0 15 53
r 0.36936 3 2 ack 40 ------- 2 3.1 1.0 3 50
+ 0.36936 2 1 ack 40 ------- 2 3.1 1.0 3 50
- 0.36936 2 1 ack 40 ------- 2 3.1 1.0 3 50
r 0.37136 2 0 ack 40 ------- 1 3.0 0.0 14 47
+ 0.37136 0 2 tcp 1040 ------- 1 0.0 3.0 29 54
+ 0.37136 0 2 tcp 1040 ------- 1 0.0 3.0 30 55
- 0.37232 0 2 tcp 1040 ------- 1 0.0 3.0 21 41
r 0.374 0 2 tcp 1040 ------- 1 0.0 3.0 19 38
+ 0.374 2 3 tcp 1040 ------- 1 0.0 3.0 19 38
- 0.374 2 3 tcp 1040 ------- 2 1.0 3.1 4 43
r 0.37568 2 3 tcp 1040 ------- 1 0.0 3.0 16 32
+ 0.37568 3 2 ack 40 ------- 1 3.0 0.0 16 56
- 0.37568 3 2 ack 40 ------- 1 3.0 0.0 16 56
r 0.37768 3 2 ack 40 ------- 1 3.0 0.0 15 53
+ 0.37768 2 0 ack 40 ------- 1 3.0 0.0 15 53
- 0.37768 2 0 ack 40 ------- 1 3.0 0.0 15 53
r 0.37968 2 1 ack 40 ------- 2 3.1 1.0 3 50
- 0.38064 0 2 tcp 1040 ------- 1 0.0 3.0 22 42
r 0.38232 0 2 tcp 1040 ------- 1 0.0 3.0 20 39
+ 0.38232 2 3 tcp 1040 ------- 1 0.0 3.0 20 39
- 0.38232 2 3 tcp 1040 ------- 1 0.0 3.0 18 36
r 0.384 2 3 tcp 1040 ------- 1 0.0 3.0 17 35
+ 0.384 3 2 ack 40 ------- 1 3.0 0.0 17 57
- 0.384 3 2 ack 40 ------- 1 3.0 0.0 17 57
r 0.386 3 2 ack 40 ------- 1 3.0 0.0 16 56
+ 0.386 2 0 ack 40 ------- 1 3.0 0.0 16 56
- 0.386 2 0 ack 40 ------- 1 3.0 0.0 16 56
r 0.388 2 0 ack 40 ------- 1 3.0 0.0 15 53
+ 0.388 0 2 tcp 1040 ------- 1 0.0 3.0 31 58
+ 0.388 0 2 tcp 1040 ------- 1 0.0 3.0 32 59
- 0.38896 0 2 tcp 1040 ------- 1 0.0 3.0 23 45
r 0.39064 0 2 tcp 1040 ------- 1 0.0 3.0 21 41
+ 0.39064 2 3 tcp 1040 ------- 1 0.0 3.0 21 41
- 0.39064 2 3 tcp 1040 ------- 1 0.0 3.0 19 38
r 0.39232 2 3 tcp 1040 ------- 2 1.0 3.1 4 43
+ 0.39232 3 2 ack 40 ------- 2 3.1 1.0 4 60
- 0.39232 3 2 ack 40 ------- 2 3.1 1.0 4 60
r 0.39432 3 2 ack 40 ------- 1 3.0 0.0 17 57
+ 0.39432 2 0 ack 40 ------- 1 3.0 0.0 17 57
- 0.39432 2 0 ack 40 ------- 1 3.0 0.0 17 57
r 0.39632 2 0 ack 40 ------- 1 3.0 0.0 16 56
+ 0.39632 0 2 tcp 1040 ------- 1 0.0 3.0 33 61
+ 0.39632 0 2 tcp 1040 ------- 1 0.0 3.0 34 62
- 0.39728 0 2 tcp 1040 ------- 1 0.0 3.0 24 46
r 0.39896 0 2 tcp 1040 ------- 1 0.0 3.0 22 42
+ 0.39896 2 3 tcp 1040 ------- 1 0.0 3.0 22 42
- 0.39896 2 3 tcp 1040 ------- 1 0.0 3.0 20 39
r 0.40064 2 3 tcp 1040 ------- 1 0.0 3.0 18 36
+ 0.40064 3 2 ack 40 ------- 1 3.0 0.0 18 63
- 0.40064 3 2 ack 40 ------- 1 3.0 0.0 18 63
r 0.40264 3 2 ack 40 ------- 2 3.1 1.0 4 60
+ 0.40264 2 1 ack 40 ------- 2 3.1 1.0 4 60
- 0.40264 2 1 ack 40 ------- 2 3.1 1.0 4 60
r 0.40464 2 0 ack 40 ------- 1 3.0 0.0 17 57
+ 0.40464 0 2 tcp 1040 ------- 1 0.0 3.0 35 64
+ 0.40464 0 2 tcp 1040 ------- 1 0.0 3.0 36 65
- 0.4056 0 2 tcp 1040 ------- 1 0.0 3.0 25 48
r 0.40728 0 2 tcp 1040 ------- 1 0.0 3.0 23 45
+ 0.40728 2 3 tcp 1040 ------- 1 0.0 3.0 23 45
- 0.40728 2 3 tcp 1040 ------- 1 0.0 3.0 21 41
r 0.40896 2 3 tcp 1040 ------- 1 0.0 3.0 19 38
+ 0.40896 3 2 ack 40 ------- 1 3.0 0.0 19 66
- 0.40896 3 2 ack 40 ------- 1 3.0 0.0 19 66
r 0.41096 3 2 ack 40 ------- 1 3.0 0.0 18 63
+ 0.41096 2 0 ack 40 ------- 1 3.0 0.0 18 63
- 0.41096 2 0 ack 40 ------- 1 3.0 0.0 18 63
r 0.41296 2 1 ack 40 ------- 2 3.1 1.0 4 60
- 0.41392 0 2 tcp 1040 ------- 1 0.0 3.0 26 49
r 0.4156 0 2 tcp 1040 ------- 1 0.0 3.0 24 46
+ 0.4156 2 3 tcp 1040 ------- 1 0.0 3.0 24 46
- 0.4156 2 3 tcp 1040 ------- 1 0.0 3.0 22 42
r 0.41728 2 3 tcp 1040 ------- 1 0.0 3.0 20 39
+ 0.41728 3 2 ack 40 ------- 1 3.0 0.0 20 67
- 0.41728 3 2 ack 40 ------- 1 3.0 0.0 20 67
r 0.41928 3 2 ack 40 ------- 1 3.0 0.0 19 66
+ 0.41928 2 0 ack 40 ------- 1 3.0 0.0 19 66
- 0.41928 2 0 ack 40 ------- 1 3.0 0.0 19 66
r 0.42128 2 0 ack 40 ------- 1 3.0 0.0 18 63
+ 0.42128 0 2 tcp 1040 ------- 1 0.0 3.0 37 68
+ 0.42128 0 2 tcp 1040 ------- 1 0.0 3.0 38 69
- 0.42224 0 2 tcp 1040 ------- 1 0.0 3.0 27 51
r 0.42392 0 2 tcp 1040 ------- 1 0.0 3.0 25 48
+ 0.42392 2 3 tcp 1040 ------- 1 0.0 3.0 25 48
- 0.42392 2 3 tcp 1040 ------- 1 0.0 3.0 23 45
r 0.4256 2 3 tcp 1040 ------- 1 0.0 3.0 21 41
+ 0.4256 3 2 ack 40 ------- 1 3.0 0.0 21 70
- 0.4256 3 2 ack 40 ------- 1 3.0 0.0 21 70
r 0.4276 3 2 ack 40 ------- 1 3.0 0.0 20 67
+ 0.4276 2 0 ack 40 ------- 1 3.0 0.0 20 67
- 0.4276 2 0 ack 40 ------- 1 3.0 0.0 20 67
r 0.4296 2 0 ack 40 ------- 1 3.0 0.0 19 66
+ 0.4296 0 2 tcp 1040 ------- 1 0.0 3.0 39 71
- 0.43056 0 2 tcp 1040 ------- 1 0.0 3.0 28 52
r 0.43224 0 2 tcp 1040 ------- 1 0.0 3.0 26 49
+ 0.43224 2 3 tcp 1040 ------- 1 0.0 3.0 26 49
- 0.43224 2 3 tcp 1040 ------- 1 0.0 3.0 24 46
r 0.43392 2 3 tcp 1040 ------- 1 0.0 3.0 22 42
+ 0.43392 3 2 ack 40 ------- 1 3.0 0.0 22 72
- 0.43392 3 2 ack 40 ------- 1 3.0 0.0 22 72
r 0.43592 3 2 ack 40 ------- 1 3.0 0.0 21 70
+ 0.43592 2 0 ack 40 ------- 1 3.0 0.0 21 70
- 0.43592 2 0 ack 40 ------- 1 3.0 0.0 21 70
r 0.43792 2 0 ack 40 ------- 1 3.0 0.0 20 67
+ 0.43792 0 2 tcp 1040 ------- 1 0.0 3.0 40 73
- 0.43888 0 2 tcp 1040 ------- 1 0.0 3.0 29 54
r 0.44056 0 2 tcp 1040 ------- 1 0.0 3.0 27 51
+ 0.44056 2 3 tcp 1040 ------- 1 0.0 3.0 27 51
- 0.44056 2 3 tcp 1040 ------- 1 0.0 3.0 25 48
r 0.44224 2 3 tcp 1040 ------- 1 0.0 3.0 23 45
+ 0.44224 3 2 ack 40 ------- 1 3.0 0.0 23 74
- 0.44224 3 2 ack 40 ------- 1 3.0 0.0 23 74
r 0.44424 3 2 ack 40 ------- 1 3.0 0.0 22 72
+ 0.44424 2 0 ack 40 ------- 1 3.0 0.0 22 72
- 0.44424 2 0 ack 40 ------- 1 3.0 0.0 22 72
r 0.44624 2 0 ack 40 ------- 1 3.0 0.0 21 70
+ 0.44624 0 2 tcp 1040 ------- 1 0.0 3.0 41 75
- 0.4472 0 2 tcp 1040 ------- 1 0.0 3.0 30 55
r 0.44888 0 2 tcp 1040 ------- 1 0.0 3.0 28 52
+ 0.44888 2 3 tcp 1040 ------- 1 0.0 3.0 28 52
- 0.44888 2 3 tcp 1040 ------- 1 0.0 3.0 26 49
r 0.45056 2 3 tcp 1040 ------- 1 0.0 3.0 24 46
+ 0.45056 3 2 ack 40 ------- 1 3.0 0.0 24 76
- 0.45056 3 2 ack 40 ------- 1 3.0 0.0 24 76
r 0.45256 3 2 ack 40 ------- 1 3.0 0.0 23 74
+ 0.45256 2 0 ack 40 ------- 1 3.0 0.0 23 74
- 0.45256 2 0 ack 40 ------- 1 3.0 0.0 23 74
r 0.45456 2 0 ack 40 ------- 1 3.0 0.0 22 72
+ 0.45456 0 2 tcp 1040 ------- 1 0.0 3.0 42 77
- 0.45552 0 2 tcp 1040 ------- 1 0.0 3.0 31 58
r 0.4572 0 2 tcp 1040 ------- 1 0.0 3.0 29 54
+ 0.4572 2 3 tcp 1040 ------- 1 0.0 3.0 29 54
- 0.4572 2 3 tcp 1040 ------- 1 0.0 3.0 27 51
r 0.45888 2 3 tcp 1040 ------- 1 0.0 3.0 25 48
+ 0.45888 3 2 ack 40 ------- 1 3.0 0.0 25 78
- 0.45888 3 2 ack 40 ------- 1 3.0 0.0 25 78
r 0.46088 3 2 ack 40 ------- 1 3.0 0.0 24 76
+ 0.46088 2 0 ack 40 ------- 1 3.0 0.0 24 76
- 0.46088 2 0 ack 40 ------- 1 3.0 0.0 24 76
r 0.46288 2 0 ack 40 ------- 1 3.0 0.0 23 74
+ 0.46288 0 2 tcp 1040 ------- 1 0.0 3.0 43 79
- 0.46384 0 2 tcp 1040 ------- 1 0.0 3.0 32 59
r 0.46552 0 2 tcp 1040 ------- 1 0.0 3.0 30 55
+ 0.46552 2 3 tcp 1040 ------- 1 0.0 3.0 30 55
- 0.46552 2 3 tcp 1040 ------- 1 0.0 3.0 28 52
r 0.4672 2 3 tcp 1040 ------- 1 0.0 3.0 26 49
+ 0.4672 3 2 ack 40 ------- 1 3.0 0.0 26 80
- 0.4672 3 2 ack 40 ------- 1 3.0 0.0 26 80
r 0.4692 3 2 ack 40 ------- 1 3.0 0.0 25 78
+ 0.4692 2 0 ack 40 ------- 1 3.0 0.0 25 78
- 0.4692 2 0 ack 40 ------- 1 3.0 0.0 25 78
r 0.4712 2 0 ack 40 ------- 1 3.0 0.0 24 76
+ 0.4712 0 2 tcp 1040 ------- 1 0.0 3.0 44 81
- 0.47216 0 2 tcp 1040 ------- 1 0.0 3.0 33 61
r 0.47384 0 2 tcp 1040 ------- 1 0.0 3.0 31 58
+ 0.47384 2 3 tcp 1040 ------- 1 0.0 3.0 31 58
- 0.47384 2 3 tcp 1040 ------- 1 0.0 3.0 29 54
r 0.47552 2 3 tcp 1040 ------- 1 0.0 3.0 27 51
+ 0.47552 3 2 ack 40 ------- 1 3.0 0.0 27 82
- 0.47552 3 2 ack 40 ------- 1 3.0 0.0 27 82
r 0.47752 3 2 ack 40 ------- 1 3.0 0.0 26 80
+ 0.47752 2 0 ack 40 ------- 1 3.0 0.0 26 80
- 0.47752 2 0 ack 40 ------- 1 3.0 0.0 26 80
r 0.47952 2 0 ack 40 ------- 1 3.0 0.0 25 78
+ 0.47952 0 2 tcp 1040 ------- 1 0.0 3.0 45 83
- 0.48048 0 2 tcp 1040 ------- 1 0.0 3.0 34 62
r 0.48216 0 2 tcp 1040 ------- 1 0.0 3.0 32 59
+ 0.48216 2 3 tcp 1040 ------- 1 0.0 3.0 32 59
- 0.48216 2 3 tcp 1040 ------- 1 0.0 3.0 30 55
r 0.48384 2 3 tcp 1040 ------- 1 0.0 3.0 28 52
+ 0.48384 3 2 ack 40 ------- 1 3.0 0.0 28 84
- 0.48384 3 2 ack 40 ------- 1 3.0 0.0 28 84
+ 0.485681 1 2 tcp 1040 ------- 2 1.0 3.1 5 85
- 0.485681 1 2 tcp 1040 ------- 2 1.0 3.1 5 85
r 0.48584 3 2 ack 40 ------- 1 3.0 0.0 27 82
+ 0.48584 2 0 ack 40 ------- 1 3.0 0.0 27 82
- 0.48584 2 0 ack 40 ------- 1 3.0 0.0 27 82
r 0.48784 2 0 ack 40 ------- 1 3.0 0.0 26 80
+ 0.48784 0 2 tcp 1040 ------- 1 0.0 3.0 46 86
- 0.4888 0 2 tcp 1040 ------- 1 0.0 3.0 35 64
r 0.49048 0 2 tcp 1040 ------- 1 0.0 3.0 33 61
+ 0.49048 2 3 tcp 1040 ------- 1 0.0 3.0 33 61
- 0.49048 2 3 tcp 1040 ------- 1 0.0 3.0 31 58
r 0.49216 2 3 tcp 1040 ------- 1 0.0 3.0 29 54
+ 0.49216 3 2 ack 40 ------- 1 3.0 0.0 29 87
- 0.49216 3 2 ack 40 ------- 1 3.0 0.0 29 87
r 0.49416 3 2 ack 40 ------- 1 3.0 0.0 28 84
+ 0.49416 2 0 ack 40 ------- 1 3.0 0.0 28 84
- 0.49416 2 0 ack 40 ------- 1 3.0 0.0 28 84
r 0.49616 2 0 ack 40 ------- 1 3.0 0.0 27 82
+ 0.49616 0 2 tcp 1040 ------- 1 0.0 3.0 47 88
- 0.49712 0 2 tcp 1040 ------- 1 0.0 3.0 36 65
r 0.4988 0 2 tcp 1040 ------- 1 0.0 3.0 34 62
+ 0.4988 2 3 tcp 1040 ------- 1 0.0 3.0 34 62
- 0.4988 2 3 tcp 1040 ------- 1 0.0 3.0 32 59
r 0.50048 2 3 tcp 1040 ------- 1 0.0 3.0 30 55
+ 0.50048 3 2 ack 40 ------- 1 3.0 0.0 30 89
- 0.50048 3 2 ack 40 ------- 1 3.0 0.0 30 89
r 0.50248 3 2 ack 40 ------- 1 3.0 0.0 29 87
+ 0.50248 2 0 ack 40 ------- 1 3.0 0.0 29 87
- 0.50248 2 0 ack 40 ------- 1 3.0 0.0 29 87
r 0.504001 1 2 tcp 1040 ------- 2 1.0 3.1 5 85
+ 0.504001 2 3 tcp 1040 ------- 2 1.0 3.1 5 85
r 0.50448 2 0 ack 40 ------- 1 3.0 0.0 28 84
+ 0.50448 0 2 tcp 1040 ------- 1 0.0 3.0 48 90
- 0.50544 0 2 tcp 1040 ------- 1 0.0 3.0 37 68
r 0.50712 0 2 tcp 1040 ------- 1 0.0 3.0 35 64
+ 0.50712 2 3 tcp 1040 ------- 1 0.0 3.0 35 64
- 0.50712 2 3 tcp 1040 ------- 1 0.0 3.0 33 61
r 0.5088 2 3 tcp 1040 ------- 1 0.0 3.0 31 58
+ 0.5088 3 2 ack 40 ------- 1 3.0 0.0 31 91
- 0.5088 3 2 ack 40 ------- 1 3.0 0.0 31 91
r 0.5108 3 2 ack 40 ------- 1 3.0 0.0 30 89
+ 0.5108 2 0 ack 40 ------- 1 3.0 0.0 30 89
- 0.5108 2 0 ack 40 ------- 1 3.0 0.0 30 89
r 0.5128 2 0 ack 40 ------- 1 3.0 0.0 29 87
+ 0.5128 0 2 tcp 1040 ------- 1 0.0 3.0 49 92
- 0.51376 0 2 tcp 1040 ------- 1 0.0 3.0 38 69
r 0.51544 0 2 tcp 1040 ------- 1 0.0 3.0 36 65
+ 0.51544 2 3 tcp 1040 ------- 1 0.0 3.0 36 65
- 0.51544 2 3 tcp 1040 ------- 1 0.0 3.0 34 62
r 0.51712 2 3 tcp 1040 ------- 1 0.0 3.0 32 59
+ 0.51712 3 2 ack 40 ------- 1 3.0 0.0 32 93
- 0.51712 3 2 ack 40 ------- 1 3.0 0.0 32 93
r 0.51912 3 2 ack 40 ------- 1 3.0 0.0 31 91
+ 0.51912 2 0 ack 40 ------- 1 3.0 0.0 31 91
- 0.51912 2 0 ack 40 ------- 1 3.0 0.0 31 91
r 0.52112 2 0 ack 40 ------- 1 3.0 0.0 30 89
+ 0.52112 0 2 tcp 1040 ------- 1 0.0 3.0 50 94
- 0.52208 0 2 tcp 1040 ------- 1 0.0 3.0 39 71
r 0.52376 0 2 tcp 1040 ------- 1 0.0 3.0 37 68
+ 0.52376 2 3 tcp 1040 ------- 1 0.0 3.0 37 68
- 0.52376 2 3 tcp 1040 ------- 2 1.0 3.1 5 85
r 0.52544 2 3 tcp 1040 ------- 1 0.0 3.0 33 61
+ 0.52544 3 2 ack 40 ------- 1 3.0 0.0 33 95
- 0.52544 3 2 ack 40 ------- 1 3.0 0.0 33 95
r 0.52744 3 2 ack 40 ------- 1 3.0 0.0 32 93
+ 0.52744 2 0 ack 40 ------- 1 3.0 0.0 32 93
- 0.52744 2 0 ack 40 ------- 1 3.0 0.0 32 93
r 0.52944 2 0 ack 40 ------- 1 3.0 0.0 31 91
+ 0.52944 0 2 tcp 1040 ------- 1 0.0 3.0 51 96
- 0.5304 0 2 tcp 1040 ------- 1 0.0 3.0 40 73
+ 0.530488 1 2 tcp 1040 ------- 2 1.0 3.1 6 97
- 0.530488 1 2 tcp 1040 ------- 2 1.0 3.1 6 97
r 0.53208 0 2 tcp 1040 ------- 1 0.0 3.0 38 69
+ 0.53208 2 3 tcp 1040 ------- 1 0.0 3.0 38 69
- 0.53208 2 3 tcp 1040 ------- 1 0.0 3.0 35 64
r 0.53376 2 3 tcp 1040 ------- 1 0.0 3.0 34 62
+ 0.53376 3 2 ack 40 ------- 1 3.0 0.0 34 98
- 0.53376 3 2 ack 40 ------- 1 3.0 0.0 34 98
r 0.53576 3 2 ack 40 ------- 1 3.0 0.0 33 95
+ 0.53576 2 0 ack 40 ------- 1 3.0 0.0 33 95
- 0.53576 2 0 ack 40 ------- 1 3.0 0.0 33 95
r 0.53776 2 0 ack 40 ------- 1 3.0 0.0 32 93
+ 0.53776 0 2 tcp 1040 ------- 1 0.0 3.0 52 99
- 0.53872 0 2 tcp 1040 ------- 1 0.0 3.0 41 75
r 0.5404 0 2 tcp 1040 ------- 1 0.0 3.0 39 71
+ 0.5404 2 3 tcp 1040 ------- 1 0.0 3.0 39 71
- 0.5404 2 3 tcp 1040 ------- 1 0.0 3.0 36 65
r 0.54208 2 3 tcp 1040 ------- 2 1.0 3.1 5 85
+ 0.54208 3 2 ack 40 ------- 2 3.1 1.0 5 100
- 0.54208 3 2 ack 40 ------- 2 3.1 1.0 5 100
r 0.54408 3 2 ack 40 ------- 1 3.0 0.0 34 98
+ 0.54408 2 0 ack 40 ------- 1 3.0 0.0 34 98
- 0.54408 2 0 ack 40 ------- 1 3.0 0.0 34 98
r 0.54608 2 0 ack 40 ------- 1 3.0 0.0 33 95
+ 0.54608 0 2 tcp 1040 ------- 1 0.0 3.0 53 101
- 0.54704 0 2 tcp 1040 ------- 1 0.0 3.0 42 77
r 0.54872 0 2 tcp 1040 ------- 1 0.0 3.0 40 73
+ 0.54872 2 3 tcp 1040 ------- 1 0.0 3.0 40 73
- 0.54872 2 3 tcp 1040 ------- 1 0.0 3.0 37 68
r 0.548808 1 2 tcp 1040 ------- 2 1.0 3.1 6 97
+ 0.548808 2 3 tcp 1040 ------- 2 1.0 3.1 6 97
r 0.5504 2 3 tcp 1040 ------- 1 0.0 3.0 35 64
+ 0.5504 3 2 ack 40 ------- 1 3.0 0.0 35 102
- 0.5504 3 2 ack 40 ------- 1 3.0 0.0 35 102
r 0.5524 3 2 ack 40 ------- 2 3.1 1.0 5 100
+ 0.5524 2 1 ack 40 ------- 2 3.1 1.0 5 100
- 0.5524 2 1 ack 40 ------- 2 3.1 1.0 5 100
r 0.5544 2 0 ack 40 ------- 1 3.0 0.0 34 98
+ 0.5544 0 2 tcp 1040 ------- 1 0.0 3.0 54 103
- 0.55536 0 2 tcp 1040 ------- 1 0.0 3.0 43 79
r 0.55704 0 2 tcp 1040 ------- 1 0.0 3.0 41 75
+ 0.55704 2 3 tcp 1040 ------- 1 0.0 3.0 41 75
- 0.55704 2 3 tcp 1040 ------- 1 0.0 3.0 38 69
r 0.55872 2 3 tcp 1040 ------- 1 0.0 3.0 36 65
+ 0.55872 3 2 ack 40 ------- 1 3.0 0.0 36 104
- 0.55872 3 2 ack 40 ------- 1 3.0 0.0 36 104
r 0.56072 3 2 ack 40 ------- 1 3.0 0.0 35 102
+ 0.56072 2 0 ack 40 ------- 1 3.0 0.0 35 102
- 0.56072 2 0 ack 40 ------- 1 3.0 0.0 35 102
r 0.56272 2 1 ack 40 ------- 2 3.1 1.0 5 100
- 0.56368 0 2 tcp 1040 ------- 1 0.0 3.0 44 81
r 0.56536 0 2 tcp 1040 ------- 1 0.0 3.0 42 77
+ 0.56536 2 3 tcp 1040 ------- 1 0.0 3.0 42 77
- 0.56536 2 3 tcp 1040 ------- 1 0.0 3.0 39 71
r 0.56704 2 3 tcp 1040 ------- 1 0.0 3.0 37 68
+ 0.56704 3 2 ack 40 ------- 1 3.0 0.0 37 105
- 0.56704 3 2 ack 40 ------- 1 3.0 0.0 37 105
r 0.56904 3 2 ack 40 ------- 1 3.0 0.0 36 104
+ 0.56904 2 0 ack 40 ------- 1 3.0 0.0 36 104
- 0.56904 2 0 ack 40 ------- 1 3.0 0.0 36 104
r 0.57104 2 0 ack 40 ------- 1 3.0 0.0 35 102
+ 0.57104 0 2 tcp 1040 ------- 1 0.0 3.0 55 106
- 0.572 0 2 tcp 1040 ------- 1 0.0 3.0 45 83
r 0.57368 0 2 tcp 1040 ------- 1 0.0 3.0 43 79
+ 0.57368 2 3 tcp 1040 ------- 1 0.0 3.0 43 79
- 0.57368 2 3 tcp 1040 ------- 1 0.0 3.0 40 73
r 0.57536 2 3 tcp 1040 ------- 1 0.0 3.0 38 69
+ 0.57536 3 2 ack 40 ------- 1 3.0 0.0 38 107
- 0.57536 3 2 ack 40 ------- 1 3.0 0.0 38 107
r 0.57736 3 2 ack 40 ------- 1 3.0 0.0 37 105
+ 0.57736 2 0 ack 40 ------- 1 3.0 0.0 37 105
- 0.57736 2 0 ack 40 ------- 1 3.0 0.0 37 105
r 0.57936 2 0 ack 40 ------- 1 3.0 0.0 36 104
+ 0.57936 0 2 tcp 1040 ------- 1 0.0 3.0 56 108
- 0.58032 0 2 tcp 1040 ------- 1 0.0 3.0 46 86
r 0.582 0 2 tcp 1040 ------- 1 0.0 3.0 44 81
+ 0.582 2 3 tcp 1040 ------- 1 0.0 3.0 44 81
- 0.582 2 3 tcp 1040 ------- 2 1.0 3.1 6 97
r 0.58368 2 3 tcp 1040 ------- 1 0.0 3.0 39 71
+ 0.58368 3 2 ack 40 ------- 1 3.0 0.0 39 109
- 0.58368 3 2 ack 40 ------- 1 3.0 0.0 39 109
r 0.58568 3 2 ack 40 ------- 1 3.0 0.0 38 107
+ 0.58568 2 0 ack 40 ------- 1 3.0 0.0 38 107
- 0.58568 2 0 ack 40 ------- 1 3.0 0.0 38 107
r 0.58768 2 0 ack 40 ------- 1 3.0 0.0 37 105
+ 0.58768 0 2 tcp 1040 ------- 1 0.0 3.0 57 110
- 0.58864 0 2 tcp 1040 ------- 1 0.0 3.0 47 88
r 0.59032 0 2 tcp 1040 ------- 1 0.0 3.0 45 83
+ 0.59032 2 3 tcp 1040 ------- 1 0.0 3.0 45 83
- 0.59032 2 3 tcp 1040 ------- 1 0.0 3.0 41 75
r 0.592 2 3 tcp 1040 ------- 1 0.0 3.0 40 73
+ 0.592 3 2 ack 40 ------- 1 3.0 0.0 40 111
- 0.592 3 2 ack 40 ------- 1 3.0 0.0 40 111
r 0.594 3 2 ack 40 ------- 1 3.0 0.0 39 109
+ 0.594 2 0 ack 40 ------- 1 3.0 0.0 39 109
- 0.594 2 0 ack 40 ------- 1 3.0 0.0 39 109
r 0.596 2 0 ack 40 ------- 1 3.0 0.0 38 107
+ 0.596 0 2 tcp 1040 ------- 1 0.0 3.0 58 112
- 0.59696 0 2 tcp 1040 ------- 1 0.0 3.0 48 90
r 0.59864 0 2 tcp 1040 ------- 1 0.0 3.0 46 86
+ 0.59864 2 3 tcp 1040 ------- 1 0.0 3.0 46 86
- 0.59864 2 3 tcp 1040 ------- 1 0.0 3.0 42 77
r 0.60032 2 3 tcp 1040 ------- 2 1.0 3.1 6 97
+ 0.60032 3 2 ack 40 ------- 2 3.1 1.0 6 113
- 0.60032 3 2 ack 40 ------- 2 3.1 1.0 6 113
r 0.60232 3 2 ack 40 ------- 1 3.0 0.0 40 111
+ 0.60232 2 0 ack 40 ------- 1 3.0 0.0 40 111
- 0.60232 2 0 ack 40 ------- 1 3.0 0.0 40 111
r 0.60432 2 0 ack 40 ------- 1 3.0 0.0 39 109
+ 0.60432 0 2 tcp 1040 ------- 1 0.0 3.0 59 114
- 0.60528 0 2 tcp 1040 ------- 1 0.0 3.0 49 92
r 0.60696 0 2 tcp 1040 ------- 1 0.0 3.0 47 88
+ 0.60696 2 3 tcp 1040 ------- 1 0.0 3.0 47 88
- 0.60696 2 3 tcp 1040 ------- 1 0.0 3.0 43 79
r 0.60864 2 3 tcp 1040 ------- 1 0.0 3.0 41 75
+ 0.60864 3 2 ack 40 ------- 1 3.0 0.0 41 115
- 0.60864 3 2 ack 40 ------- 1 3.0 0.0 41 115
r 0.61064 3 2 ack 40 ------- 2 3.1 1.0 6 113
+ 0.61064 2 1 ack 40 ------- 2 3.1 1.0 6 113
- 0.61064 2 1 ack 40 ------- 2 3.1 1.0 6 113
r 0.61264 2 0 ack 40 ------- 1 3.0 0.0 40 111
+ 0.61264 0 2 tcp 1040 ------- 1 0.0 3.0 60 116
- 0.6136 0 2 tcp 1040 ------- 1 0.0 3.0 50 94
r 0.61528 0 2 tcp 1040 ------- 1 0.0 3.0 48 90
+ 0.61528 2 3 tcp 1040 ------- 1 0.0 3.0 48 90
- 0.61528 2 3 tcp 1040 ------- 1 0.0 3.0 44 81
r 0.61696 2 3 tcp 1040 ------- 1 0.0 3.0 42 77
+ 0.61696 3 2 ack 40 ------- 1 3.0 0.0 42 117
- 0.61696 3 2 ack 40 ------- 1 3.0 0.0 42 117
r 0.61896 3 2 ack 40 ------- 1 3.0 0.0 41 115
+ 0.61896 2 0 ack 40 ------- 1 3.0 0.0 41 115
- 0.61896 2 0 ack 40 ------- 1 3.0 0.0 41 115
r 0.62096 2 1 ack 40 ------- 2 3.1 1.0 6 113
- 0.62192 0 2 tcp 1040 ------- 1 0.0 3.0 51 96
r 0.6236 0 2 tcp 1040 ------- 1 0.0 3.0 49 92
+ 0.6236 2 3 tcp 1040 ------- 1 0.0 3.0 49 92
- 0.6236 2 3 tcp 1040 ------- 1 0.0 3.0 45 83
r 0.62528 2 3 tcp 1040 ------- 1 0.0 3.0 43 79
+ 0.62528 3 2 ack 40 ------- 1 3.0 0.0 43 118
- 0.62528 3 2 ack 40 ------- 1 3.0 0.0 43 118
r 0.62728 3 2 ack 40 ------- 1 3.0 0.0 42 117
+ 0.62728 2 0 ack 40 ------- 1 3.0 0.0 42 117
- 0.62728 2 0 ack 40 ------- 1 3.0 0.0 42 117
r 0.62928 2 0 ack 40 ------- 1 3.0 0.0 41 115
+ 0.62928 0 2 tcp 1040 ------- 1 0.0 3.0 61 119
- 0.63024 0 2 tcp 1040 ------- 1 0.0 3.0 52 99
r 0.63192 0 2 tcp 1040 ------- 1 0.0 3.0 50 94
+ 0.63192 2 3 tcp 1040 ------- 1 0.0 3.0 50 94
- 0.63192 2 3 tcp 1040 ------- 1 0.0 3.0 46 86
r 0.6336 2 3 tcp 1040 ------- 1 0.0 3.0 44 81
+ 0.6336 3 2 ack 40 ------- 1 3.0 0.0 44 120
- 0.6336 3 2 ack 40 ------- 1 3.0 0.0 44 120
r 0.6356 3 2 ack 40 ------- 1 3.0 0.0 43 118
+ 0.6356 2 0 ack 40 ------- 1 3.0 0.0 43 118
- 0.6356 2 0 ack 40 ------- 1 3.0 0.0 43 118
r 0.6376 2 0 ack 40 ------- 1 3.0 0.0 42 117