+ 0.1 0 2 tcp 40 ------- 1 0.0 3.0 0 0
- 0.1 0 2 tcp 40 ------- 1 0.0 3.0 0 0
r 0.11032 0 2 tcp 40 ------- 1 0.0 3.0 0 0
+ 0.11032 2 3 tcp 40 ------- 1 0.0 3.0 0 0
- 0.11032 2 3 tcp 40 ------- 1 0.0 3.0 0 0
r 0.12064 2 3 tcp 40 ------- 1 0.0 3.0 0 0
+ 0.12064 3 2 ack 40 ------- 1 3.0 0.0 0 1
- 0.12064 3 2 ack 40 ------- 1 3.0 0.0 0 1
r 0.13096 3 2 ack 40 ------- 1 3.0 0.0 0 1
+ 0.13096 2 0 ack 40 ------- 1 3.0 0.0 0 1
- 0.13096 2 0 ack 40 ------- 1 3.0 0.0 0 1
r 0.14128 2 0 ack 40 ------- 1 3.0 0.0 0 1
+ 0.14128 0 2 tcp 1040 ------- 1 0.0 3.0 1 2
- 0.14128 0 2 tcp 1040 ------- 1 0.0 3.0 1 2
+ 0.14128 0 2 tcp 1040 ------- 1 0.0 3.0 2 3
- 0.1496 0 2 tcp 1040 ------- 1 0.0 3.0 2 3
r 0.1596 0 2 tcp 1040 ------- 1 0.0 3.0 1 2
+ 0.1596 2 3 tcp 1040 ------- 1 0.0 3.0 1 2
- 0.1596 2 3 tcp 1040 ------- 1 0.0 3.0 1 2
r 0.16792 0 2 tcp 1040 ------- 1 0.0 3.0 2 3
+ 0.16792 2 3 tcp 1040 ------- 1 0.0 3.0 2 3
- 0.16792 2 3 tcp 1040 ------- 1 0.0 3.0 2 3
r 0.17792 2 3 tcp 1040 ------- 1 0.0 3.0 1 2
+ 0.17792 3 2 ack 40 ------- 1 3.0 0.0 1 4
- 0.17792 3 2 ack 40 ------- 1 3.0 0.0 1 4
r 0.18624 2 3 tcp 1040 ------- 1 0.0 3.0 2 3
+ 0.18624 3 2 ack 40 ------- 1 3.0 0.0 2 5
- 0.18624 3 2 ack 40 ------- 1 3.0 0.0 2 5
r 0.18824 3 2 ack 40 ------- 1 3.0 0.0 1 4
+ 0.18824 2 0 ack 40 ------- 1 3.0 0.0 1 4
- 0.18824 2 0 ack 40 ------- 1 3.0 0.0 1 4
r 0.19656 3 2 ack 40 ------- 1 3.0 0.0 2 5
+ 0.19656 2 0 ack 40 ------- 1 3.0 0.0 2 5
- 0.19656 2 0 ack 40 ------- 1 3.0 0.0 2 5
r 0.19856 2 0 ack 40 ------- 1 3.0 0.0 1 4
+ 0.19856 0 2 tcp 1040 ------- 1 0.0 3.0 3 6
- 0.19856 0 2 tcp 1040 ------- 1 0.0 3.0 3 6
+ 0.19856 0 2 tcp 1040 ------- 1 0.0 3.0 4 7
r 0.20688 2 0 ack 40 ------- 1 3.0 0.0 2 5
+ 0.20688 0 2 tcp 1040 ------- 1 0.0 3.0 5 8
+ 0.20688 0 2 tcp 1040 ------- 1 0.0 3.0 6 9
- 0.20688 0 2 tcp 1040 ------- 1 0.0 3.0 4 7
- 0.2152 0 2 tcp 1040 ------- 1 0.0 3.0 5 8
r 0.21688 0 2 tcp 1040 ------- 1 0.0 3.0 3 6
+ 0.21688 2 3 tcp 1040 ------- 1 0.0 3.0 3 6
- 0.21688 2 3 tcp 1040 ------- 1 0.0 3.0 3 6
- 0.22352 0 2 tcp 1040 ------- 1 0.0 3.0 6 9
r 0.2252 0 2 tcp 1040 ------- 1 0.0 3.0 4 7
+ 0.2252 2 3 tcp 1040 ------- 1 0.0 3.0 4 7
- 0.2252 2 3 tcp 1040 ------- 1 0.0 3.0 4 7
r 0.23352 0 2 tcp 1040 ------- 1 0.0 3.0 5 8
+ 0.23352 2 3 tcp 1040 ------- 1 0.0 3.0 5 8
- 0.23352 2 3 tcp 1040 ------- 1 0.0 3.0 5 8
r 0.2352 2 3 tcp 1040 ------- 1 0.0 3.0 3 6
+ 0.2352 3 2 ack 40 ------- 1 3.0 0.0 3 10
- 0.2352 3 2 ack 40 ------- 1 3.0 0.0 3 10
r 0.24184 0 2 tcp 1040 ------- 1 0.0 3.0 6 9
+ 0.24184 2 3 tcp 1040 ------- 1 0.0 3.0 6 9
- 0.24184 2 3 tcp 1040 ------- 1 0.0 3.0 6 9
r 0.24352 2 3 tcp 1040 ------- 1 0.0 3.0 4 7
+ 0.24352 3 2 ack 40 ------- 1 3.0 0.0 4 11
- 0.24352 3 2 ack 40 ------- 1 3.0 0.0 4 11
r 0.24552 3 2 ack 40 ------- 1 3.0 0.0 3 10
+ 0.24552 2 0 ack 40 ------- 1 3.0 0.0 3 10
- 0.24552 2 0 ack 40 ------- 1 3.0 0.0 3 10
r 0.25184 2 3 tcp 1040 ------- 1 0.0 3.0 5 8
+ 0.25184 3 2 ack 40 ------- 1 3.0 0.0 5 12
- 0.25184 3 2 ack 40 ------- 1 3.0 0.0 5 12
r 0.25384 3 2 ack 40 ------- 1 3.0 0.0 4 11
+ 0.25384 2 0 ack 40 ------- 1 3.0 0.0 4 11
- 0.25384 2 0 ack 40 ------- 1 3.0 0.0 4 11
r 0.25584 2 0 ack 40 ------- 1 3.0 0.0 3 10
+ 0.25584 0 2 tcp 1040 ------- 1 0.0 3.0 7 13
- 0.25584 0 2 tcp 1040 ------- 1 0.0 3.0 7 13
+ 0.25584 0 2 tcp 1040 ------- 1 0.0 3.0 8 14
r 0.26016 2 3 tcp 1040 ------- 1 0.0 3.0 6 9
+ 0.26016 3 2 ack 40 ------- 1 3.0 0.0 6 15
- 0.26016 3 2 ack 40 ------- 1 3.0 0.0 6 15
r 0.26216 3 2 ack 40 ------- 1 3.0 0.0 5 12
+ 0.26216 2 0 ack 40 ------- 1 3.0 0.0 5 12
- 0.26216 2 0 ack 40 ------- 1 3.0 0.0 5 12
r 0.26416 2 0 ack 40 ------- 1 3.0 0.0 4 11
+ 0.26416 0 2 tcp 1040 ------- 1 0.0 3.0 9 16
+ 0.26416 0 2 tcp 1040 ------- 1 0.0 3.0 10 17
- 0.26416 0 2 tcp 1040 ------- 1 0.0 3.0 8 14
r 0.27048 3 2 ack 40 ------- 1 3.0 0.0 6 15
+ 0.27048 2 0 ack 40 ------- 1 3.0 0.0 6 15
- 0.27048 2 0 ack 40 ------- 1 3.0 0.0 6 15
r 0.27248 2 0 ack 40 ------- 1 3.0 0.0 5 12
+ 0.27248 0 2 tcp 1040 ------- 1 0.0 3.0 11 18
+ 0.27248 0 2 tcp 1040 ------- 1 0.0 3.0 12 19
- 0.27248 0 2 tcp 1040 ------- 1 0.0 3.0 9 16
r 0.27416 0 2 tcp 1040 ------- 1 0.0 3.0 7 13
+ 0.27416 2 3 tcp 1040 ------- 1 0.0 3.0 7 13
- 0.27416 2 3 tcp 1040 ------- 1 0.0 3.0 7 13
r 0.2808 2 0 ack 40 ------- 1 3.0 0.0 6 15
+ 0.2808 0 2 tcp 1040 ------- 1 0.0 3.0 13 20
+ 0.2808 0 2 tcp 1040 ------- 1 0.0 3.0 14 21
- 0.2808 0 2 tcp 1040 ------- 1 0.0 3.0 10 17
r 0.28248 0 2 tcp 1040 ------- 1 0.0 3.0 8 14
+ 0.28248 2 3 tcp 1040 ------- 1 0.0 3.0 8 14
- 0.28248 2 3 tcp 1040 ------- 1 0.0 3.0 8 14
- 0.28912 0 2 tcp 1040 ------- 1 0.0 3.0 11 18
r 0.2908 0 2 tcp 1040 ------- 1 0.0 3.0 9 16
+ 0.2908 2 3 tcp 1040 ------- 1 0.0 3.0 9 16
- 0.2908 2 3 tcp 1040 ------- 1 0.0 3.0 9 16
r 0.29248 2 3 tcp 1040 ------- 1 0.0 3.0 7 13
+ 0.29248 3 2 ack 40 ------- 1 3.0 0.0 7 22
- 0.29248 3 2 ack 40 ------- 1 3.0 0.0 7 22
- 0.29744 0 2 tcp 1040 ------- 1 0.0 3.0 12 19
r 0.29912 0 2 tcp 1040 ------- 1 0.0 3.0 10 17
+ 0.29912 2 3 tcp 1040 ------- 1 0.0 3.0 10 17
- 0.29912 2 3 tcp 1040 ------- 1 0.0 3.0 10 17
+ 0.3 1 2 cbr 500 ------- 2 1.0 3.1 0 23
- 0.3 1 2 cbr 500 ------- 2 1.0 3.1 0 23
r 0.3008 2 3 tcp 1040 ------- 1 0.0 3.0 8 14
+ 0.3008 3 2 ack 40 ------- 1 3.0 0.0 8 24
- 0.3008 3 2 ack 40 ------- 1 3.0 0.0 8 24
r 0.3028 3 2 ack 40 ------- 1 3.0 0.0 7 22
+ 0.3028 2 0 ack 40 ------- 1 3.0 0.0 7 22
- 0.3028 2 0 ack 40 ------- 1 3.0 0.0 7 22
+ 0.305 1 2 cbr 500 ------- 2 1.0 3.1 1 25
- 0.305 1 2 cbr 500 ------- 2 1.0 3.1 1 25
- 0.30576 0 2 tcp 1040 ------- 1 0.0 3.0 13 20
r 0.30744 0 2 tcp 1040 ------- 1 0.0 3.0 11 18
+ 0.30744 2 3 tcp 1040 ------- 1 0.0 3.0 11 18
- 0.30744 2 3 tcp 1040 ------- 1 0.0 3.0 11 18
r 0.30912 2 3 tcp 1040 ------- 1 0.0 3.0 9 16
+ 0.30912 3 2 ack 40 ------- 1 3.0 0.0 9 26
- 0.30912 3 2 ack 40 ------- 1 3.0 0.0 9 26
+ 0.31 1 2 cbr 500 ------- 2 1.0 3.1 2 27
- 0.31 1 2 cbr 500 ------- 2 1.0 3.1 2 27
r 0.31112 3 2 ack 40 ------- 1 3.0 0.0 8 24
+ 0.31112 2 0 ack 40 ------- 1 3.0 0.0 8 24
- 0.31112 2 0 ack 40 ------- 1 3.0 0.0 8 24
r 0.31312 2 0 ack 40 ------- 1 3.0 0.0 7 22
+ 0.31312 0 2 tcp 1040 ------- 1 0.0 3.0 15 28
+ 0.31312 0 2 tcp 1040 ------- 1 0.0 3.0 16 29
r 0.314 1 2 cbr 500 ------- 2 1.0 3.1 0 23
+ 0.314 2 3 cbr 500 ------- 2 1.0 3.1 0 23
- 0.31408 0 2 tcp 1040 ------- 1 0.0 3.0 14 21
+ 0.315 1 2 cbr 500 ------- 2 1.0 3.1 3 30
- 0.315 1 2 cbr 500 ------- 2 1.0 3.1 3 30
r 0.31576 0 2 tcp 1040 ------- 1 0.0 3.0 12 19
+ 0.31576 2 3 tcp 1040 ------- 1 0.0 3.0 12 19
- 0.31576 2 3 cbr 500 ------- 2 1.0 3.1 0 23
r 0.31744 2 3 tcp 1040 ------- 1 0.0 3.0 10 17
+ 0.31744 3 2 ack 40 ------- 1 3.0 0.0 10 31
- 0.31744 3 2 ack 40 ------- 1 3.0 0.0 10 31
r 0.319 1 2 cbr 500 ------- 2 1.0 3.1 1 25
+ 0.319 2 3 cbr 500 ------- 2 1.0 3.1 1 25
r 0.31944 3 2 ack 40 ------- 1 3.0 0.0 9 26
+ 0.31944 2 0 ack 40 ------- 1 3.0 0.0 9 26
- 0.31944 2 0 ack 40 ------- 1 3.0 0.0 9 26
- 0.31976 2 3 tcp 1040 ------- 1 0.0 3.0 12 19
+ 0.32 1 2 cbr 500 ------- 2 1.0 3.1 4 32
- 0.32 1 2 cbr 500 ------- 2 1.0 3.1 4 32
r 0.32144 2 0 ack 40 ------- 1 3.0 0.0 8 24
+ 0.32144 0 2 tcp 1040 ------- 1 0.0 3.0 17 33
+ 0.32144 0 2 tcp 1040 ------- 1 0.0 3.0 18 34
- 0.3224 0 2 tcp 1040 ------- 1 0.0 3.0 15 28
r 0.324 1 2 cbr 500 ------- 2 1.0 3.1 2 27
+ 0.324 2 3 cbr 500 ------- 2 1.0 3.1 2 27
r 0.32408 0 2 tcp 1040 ------- 1 0.0 3.0 13 20
+ 0.32408 2 3 tcp 1040 ------- 1 0.0 3.0 13 20
+ 0.325 1 2 cbr 500 ------- 2 1.0 3.1 5 35
- 0.325 1 2 cbr 500 ------- 2 1.0 3.1 5 35
r 0.32576 2 3 tcp 1040 ------- 1 0.0 3.0 11 18
+ 0.32576 3 2 ack 40 ------- 1 3.0 0.0 11 36
- 0.32576 3 2 ack 40 ------- 1 3.0 0.0 11 36
r 0.32776 3 2 ack 40 ------- 1 3.0 0.0 10 31
+ 0.32776 2 0 ack 40 ------- 1 3.0 0.0 10 31
- 0.32776 2 0 ack 40 ------- 1 3.0 0.0 10 31
- 0.32808 2 3 cbr 500 ------- 2 1.0 3.1 1 25
r 0.329 1 2 cbr 500 ------- 2 1.0 3.1 3 30
+ 0.329 2 3 cbr 500 ------- 2 1.0 3.1 3 30
r 0.32976 2 3 cbr 500 ------- 2 1.0 3.1 0 23
r 0.32976 2 0 ack 40 ------- 1 3.0 0.0 9 26
+ 0.32976 0 2 tcp 1040 ------- 1 0.0 3.0 19 37
+ 0.32976 0 2 tcp 1040 ------- 1 0.0 3.0 20 38
+ 0.33 1 2 cbr 500 ------- 2 1.0 3.1 6 39
- 0.33 1 2 cbr 500 ------- 2 1.0 3.1 6 39
- 0.33072 0 2 tcp 1040 ------- 1 0.0 3.0 16 29
- 0.33208 2 3 cbr 500 ------- 2 1.0 3.1 2 27
r 0.3324 0 2 tcp 1040 ------- 1 0.0 3.0 14 21
+ 0.3324 2 3 tcp 1040 ------- 1 0.0 3.0 14 21
r 0.334 1 2 cbr 500 ------- 2 1.0 3.1 4 32
+ 0.334 2 3 cbr 500 ------- 2 1.0 3.1 4 32
+ 0.335 1 2 cbr 500 ------- 2 1.0 3.1 7 40
- 0.335 1 2 cbr 500 ------- 2 1.0 3.1 7 40
r 0.33608 3 2 ack 40 ------- 1 3.0 0.0 11 36
+ 0.33608 2 0 ack 40 ------- 1 3.0 0.0 11 36
- 0.33608 2 0 ack 40 ------- 1 3.0 0.0 11 36
- 0.33608 2 3 tcp 1040 ------- 1 0.0 3.0 13 20
r 0.33808 2 3 tcp 1040 ------- 1 0.0 3.0 12 19
+ 0.33808 3 2 ack 40 ------- 1 3.0 0.0 12 41
- 0.33808 3 2 ack 40 ------- 1 3.0 0.0 12 41
r 0.33808 2 0 ack 40 ------- 1 3.0 0.0 10 31
+ 0.33808 0 2 tcp 1040 ------- 1 0.0 3.0 21 42
+ 0.33808 0 2 tcp 1040 ------- 1 0.0 3.0 22 43
r 0.339 1 2 cbr 500 ------- 2 1.0 3.1 5 35
+ 0.339 2 3 cbr 500 ------- 2 1.0 3.1 5 35
- 0.33904 0 2 tcp 1040 ------- 1 0.0 3.0 17 33
+ 0.34 1 2 cbr 500 ------- 2 1.0 3.1 8 44
- 0.34 1 2 cbr 500 ------- 2 1.0 3.1 8 44
r 0.34072 0 2 tcp 1040 ------- 1 0.0 3.0 15 28
+ 0.34072 2 3 tcp 1040 ------- 1 0.0 3.0 15 28
r 0.34208 2 3 cbr 500 ------- 2 1.0 3.1 1 25
r 0.344 1 2 cbr 500 ------- 2 1.0 3.1 6 39
+ 0.344 2 3 cbr 500 ------- 2 1.0 3.1 6 39
- 0.3444 2 3 cbr 500 ------- 2 1.0 3.1 3 30
+ 0.345 1 2 cbr 500 ------- 2 1.0 3.1 9 45
- 0.345 1 2 cbr 500 ------- 2 1.0 3.1 9 45
r 0.34608 2 3 cbr 500 ------- 2 1.0 3.1 2 27
r 0.3464 2 0 ack 40 ------- 1 3.0 0.0 11 36
+ 0.3464 0 2 tcp 1040 ------- 1 0.0 3.0 23 46
+ 0.3464 0 2 tcp 1040 ------- 1 0.0 3.0 24 47
- 0.34736 0 2 tcp 1040 ------- 1 0.0 3.0 18 34
r 0.3484 3 2 ack 40 ------- 1 3.0 0.0 12 41
+ 0.3484 2 0 ack 40 ------- 1 3.0 0.0 12 41
- 0.3484 2 0 ack 40 ------- 1 3.0 0.0 12 41
- 0.3484 2 3 tcp 1040 ------- 1 0.0 3.0 14 21
r 0.349 1 2 cbr 500 ------- 2 1.0 3.1 7 40
+ 0.349 2 3 cbr 500 ------- 2 1.0 3.1 7 40
r 0.34904 0 2 tcp 1040 ------- 1 0.0 3.0 16 29
+ 0.34904 2 3 tcp 1040 ------- 1 0.0 3.0 16 29
+ 0.35 1 2 cbr 500 ------- 2 1.0 3.1 10 48
- 0.35 1 2 cbr 500 ------- 2 1.0 3.1 10 48
r 0.354 1 2 cbr 500 ------- 2 1.0 3.1 8 44
+ 0.354 2 3 cbr 500 ------- 2 1.0 3.1 8 44
r 0.3544 2 3 tcp 1040 ------- 1 0.0 3.0 13 20
+ 0.3544 3 2 ack 40 ------- 1 3.0 0.0 13 49
- 0.3544 3 2 ack 40 ------- 1 3.0 0.0 13 49
+ 0.355 1 2 cbr 500 ------- 2 1.0 3.1 11 50
- 0.355 1 2 cbr 500 ------- 2 1.0 3.1 11 50
- 0.35568 0 2 tcp 1040 ------- 1 0.0 3.0 19 37
- 0.35672 2 3 cbr 500 ------- 2 1.0 3.1 4 32
r 0.35736 0 2 tcp 1040 ------- 1 0.0 3.0 17 33
+ 0.35736 2 3 tcp 1040 ------- 1 0.0 3.0 17 33
r 0.3584 2 3 cbr 500 ------- 2 1.0 3.1 3 30
r 0.35872 2 0 ack 40 ------- 1 3.0 0.0 12 41
+ 0.35872 0 2 tcp 1040 ------- 1 0.0 3.0 25 51
+ 0.35872 0 2 tcp 1040 ------- 1 0.0 3.0 26 52
r 0.359 1 2 cbr 500 ------- 2 1.0 3.1 9 45
+ 0.359 2 3 cbr 500 ------- 2 1.0 3.1 9 45
+ 0.36 1 2 cbr 500 ------- 2 1.0 3.1 12 53
- 0.36 1 2 cbr 500 ------- 2 1.0 3.1 12 53
- 0.36072 2 3 cbr 500 ------- 2 1.0 3.1 5 35
- 0.364 0 2 tcp 1040 ------- 1 0.0 3.0 20 38
r 0.364 1 2 cbr 500 ------- 2 1.0 3.1 10 48
+ 0.364 2 3 cbr 500 ------- 2 1.0 3.1 10 48
r 0.36472 3 2 ack 40 ------- 1 3.0 0.0 13 49
+ 0.36472 2 0 ack 40 ------- 1 3.0 0.0 13 49
- 0.36472 2 0 ack 40 ------- 1 3.0 0.0 13 49
- 0.36472 2 3 tcp 1040 ------- 1 0.0 3.0 15 28
+ 0.365 1 2 cbr 500 ------- 2 1.0 3.1 13 54
- 0.365 1 2 cbr 500 ------- 2 1.0 3.1 13 54
r 0.36568 0 2 tcp 1040 ------- 1 0.0 3.0 18 34
+ 0.36568 2 3 tcp 1040 ------- 1 0.0 3.0 18 34
r 0.36672 2 3 tcp 1040 ------- 1 0.0 3.0 14 21
+ 0.36672 3 2 ack 40 ------- 1 3.0 0.0 14 55
- 0.36672 3 2 ack 40 ------- 1 3.0 0.0 14 55
r 0.369 1 2 cbr 500 ------- 2 1.0 3.1 11 50
+ 0.369 2 3 cbr 500 ------- 2 1.0 3.1 11 50
+ 0.37 1 2 cbr 500 ------- 2 1.0 3.1 14 56
- 0.37 1 2 cbr 500 ------- 2 1.0 3.1 14 56
r 0.37072 2 3 cbr 500 ------- 2 1.0 3.1 4 32
- 0.37232 0 2 tcp 1040 ------- 1 0.0 3.0 21 42
- 0.37304 2 3 cbr 500 ------- 2 1.0 3.1 6 39
r 0.374 0 2 tcp 1040 ------- 1 0.0 3.0 19 37
+ 0.374 2 3 tcp 1040 ------- 1 0.0 3.0 19 37
r 0.374 1 2 cbr 500 ------- 2 1.0 3.1 12 53
+ 0.374 2 3 cbr 500 ------- 2 1.0 3.1 12 53
r 0.37472 2 3 cbr 500 ------- 2 1.0 3.1 5 35
+ 0.375 1 2 cbr 500 ------- 2 1.0 3.1 15 57
- 0.375 1 2 cbr 500 ------- 2 1.0 3.1 15 57
r 0.37504 2 0 ack 40 ------- 1 3.0 0.0 13 49
+ 0.37504 0 2 tcp 1040 ------- 1 0.0 3.0 27 58
+ 0.37504 0 2 tcp 1040 ------- 1 0.0 3.0 28 59
r 0.37704 3 2 ack 40 ------- 1 3.0 0.0 14 55
+ 0.37704 2 0 ack 40 ------- 1 3.0 0.0 14 55
- 0.37704 2 0 ack 40 ------- 1 3.0 0.0 14 55
- 0.37704 2 3 cbr 500 ------- 2 1.0 3.1 7 40
r 0.379 1 2 cbr 500 ------- 2 1.0 3.1 13 54
+ 0.379 2 3 cbr 500 ------- 2 1.0 3.1 13 54
+ 0.38 1 2 cbr 500 ------- 2 1.0 3.1 16 60
- 0.38 1 2 cbr 500 ------- 2 1.0 3.1 16 60
- 0.38064 0 2 tcp 1040 ------- 1 0.0 3.0 22 43
- 0.38104 2 3 tcp 1040 ------- 1 0.0 3.0 16 29
r 0.38232 0 2 tcp 1040 ------- 1 0.0 3.0 20 38
+ 0.38232 2 3 tcp 1040 ------- 1 0.0 3.0 20 38
r 0.38304 2 3 tcp 1040 ------- 1 0.0 3.0 15 28
+ 0.38304 3 2 ack 40 ------- 1 3.0 0.0 15 61
- 0.38304 3 2 ack 40 ------- 1 3.0 0.0 15 61
r 0.384 1 2 cbr 500 ------- 2 1.0 3.1 14 56
+ 0.384 2 3 cbr 500 ------- 2 1.0 3.1 14 56
+ 0.385 1 2 cbr 500 ------- 2 1.0 3.1 17 62
- 0.385 1 2 cbr 500 ------- 2 1.0 3.1 17 62
r 0.38704 2 3 cbr 500 ------- 2 1.0 3.1 6 39
r 0.38736 2 0 ack 40 ------- 1 3.0 0.0 14 55
+ 0.38736 0 2 tcp 1040 ------- 1 0.0 3.0 29 63
+ 0.38736 0 2 tcp 1040 ------- 1 0.0 3.0 30 64
- 0.38896 0 2 tcp 1040 ------- 1 0.0 3.0 23 46
r 0.389 1 2 cbr 500 ------- 2 1.0 3.1 15 57
+ 0.389 2 3 cbr 500 ------- 2 1.0 3.1 15 57
- 0.38936 2 3 cbr 500 ------- 2 1.0 3.1 8 44
+ 0.39 1 2 cbr 500 ------- 2 1.0 3.1 18 65
- 0.39 1 2 cbr 500 ------- 2 1.0 3.1 18 65
r 0.39064 0 2 tcp 1040 ------- 1 0.0 3.0 21 42
+ 0.39064 2 3 tcp 1040 ------- 1 0.0 3.0 21 42
r 0.39104 2 3 cbr 500 ------- 2 1.0 3.1 7 40
r 0.39336 3 2 ack 40 ------- 1 3.0 0.0 15 61
+ 0.39336 2 0 ack 40 ------- 1 3.0 0.0 15 61
- 0.39336 2 0 ack 40 ------- 1 3.0 0.0 15 61
- 0.39336 2 3 tcp 1040 ------- 1 0.0 3.0 17 33
r 0.394 1 2 cbr 500 ------- 2 1.0 3.1 16 60
+ 0.394 2 3 cbr 500 ------- 2 1.0 3.1 16 60
+ 0.395 1 2 cbr 500 ------- 2 1.0 3.1 19 66
- 0.395 1 2 cbr 500 ------- 2 1.0 3.1 19 66
- 0.39728 0 2 tcp 1040 ------- 1 0.0 3.0 24 47
r 0.39896 0 2 tcp 1040 ------- 1 0.0 3.0 22 43
+ 0.39896 2 3 tcp 1040 ------- 1 0.0 3.0 22 43
r 0.399 1 2 cbr 500 ------- 2 1.0 3.1 17 62
+ 0.399 2 3 cbr 500 ------- 2 1.0 3.1 17 62
r 0.39936 2 3 tcp 1040 ------- 1 0.0 3.0 16 29
+ 0.39936 3 2 ack 40 ------- 1 3.0 0.0 16 67
- 0.39936 3 2 ack 40 ------- 1 3.0 0.0 16 67
+ 0.4 1 2 cbr 500 ------- 2 1.0 3.1 20 68
- 0.4 1 2 cbr 500 ------- 2 1.0 3.1 20 68
- 0.40168 2 3 cbr 500 ------- 2 1.0 3.1 9 45
r 0.40336 2 3 cbr 500 ------- 2 1.0 3.1 8 44
r 0.40368 2 0 ack 40 ------- 1 3.0 0.0 15 61
+ 0.40368 0 2 tcp 1040 ------- 1 0.0 3.0 31 69
+ 0.40368 0 2 tcp 1040 ------- 1 0.0 3.0 32 70
r 0.404 1 2 cbr 500 ------- 2 1.0 3.1 18 65
+ 0.404 2 3 cbr 500 ------- 2 1.0 3.1 18 65
+ 0.405 1 2 cbr 500 ------- 2 1.0 3.1 21 71
- 0.405 1 2 cbr 500 ------- 2 1.0 3.1 21 71
- 0.4056 0 2 tcp 1040 ------- 1 0.0 3.0 25 51
- 0.40568 2 3 cbr 500 ------- 2 1.0 3.1 10 48
r 0.40728 0 2 tcp 1040 ------- 1 0.0 3.0 23 46
+ 0.40728 2 3 tcp 1040 ------- 1 0.0 3.0 23 46
r 0.409 1 2 cbr 500 ------- 2 1.0 3.1 19 66
+ 0.409 2 3 cbr 500 ------- 2 1.0 3.1 19 66
r 0.40968 3 2 ack 40 ------- 1 3.0 0.0 16 67
+ 0.40968 2 0 ack 40 ------- 1 3.0 0.0 16 67
- 0.40968 2 0 ack 40 ------- 1 3.0 0.0 16 67
- 0.40968 2 3 tcp 1040 ------- 1 0.0 3.0 18 34
+ 0.41 1 2 cbr 500 ------- 2 1.0 3.1 22 72
- 0.41 1 2 cbr 500 ------- 2 1.0 3.1 22 72
r 0.41168 2 3 tcp 1040 ------- 1 0.0 3.0 17 33
+ 0.41168 3 2 ack 40 ------- 1 3.0 0.0 17 73
- 0.41168 3 2 ack 40 ------- 1 3.0 0.0 17 73
- 0.41392 0 2 tcp 1040 ------- 1 0.0 3.0 26 52
r 0.414 1 2 cbr 500 ------- 2 1.0 3.1 20 68
+ 0.414 2 3 cbr 500 ------- 2 1.0 3.1 20 68
+ 0.415 1 2 cbr 500 ------- 2 1.0 3.1 23 74
- 0.415 1 2 cbr 500 ------- 2 1.0 3.1 23 74
r 0.4156 0 2 tcp 1040 ------- 1 0.0 3.0 24 47
+ 0.4156 2 3 tcp 1040 ------- 1 0.0 3.0 24 47
r 0.41568 2 3 cbr 500 ------- 2 1.0 3.1 9 45
- 0.418 2 3 cbr 500 ------- 2 1.0 3.1 11 50
r 0.419 1 2 cbr 500 ------- 2 1.0 3.1 21 71
+ 0.419 2 3 cbr 500 ------- 2 1.0 3.1 21 71
r 0.41968 2 3 cbr 500 ------- 2 1.0 3.1 10 48
r 0.42 2 0 ack 40 ------- 1 3.0 0.0 16 67
+ 0.42 0 2 tcp 1040 ------- 1 0.0 3.0 33 75
+ 0.42 0 2 tcp 1040 ------- 1 0.0 3.0 34 76
+ 0.42 1 2 cbr 500 ------- 2 1.0 3.1 24 77
- 0.42 1 2 cbr 500 ------- 2 1.0 3.1 24 77
r 0.422 3 2 ack 40 ------- 1 3.0 0.0 17 73
+ 0.422 2 0 ack 40 ------- 1 3.0 0.0 17 73
- 0.422 2 0 ack 40 ------- 1 3.0 0.0 17 73
- 0.422 2 3 tcp 1040 ------- 1 0.0 3.0 19 37
- 0.42224 0 2 tcp 1040 ------- 1 0.0 3.0 27 58
r 0.42392 0 2 tcp 1040 ------- 1 0.0 3.0 25 51
+ 0.42392 2 3 tcp 1040 ------- 1 0.0 3.0 25 51
r 0.424 1 2 cbr 500 ------- 2 1.0 3.1 22 72
+ 0.424 2 3 cbr 500 ------- 2 1.0 3.1 22 72
+ 0.425 1 2 cbr 500 ------- 2 1.0 3.1 25 78
- 0.425 1 2 cbr 500 ------- 2 1.0 3.1 25 78
r 0.428 2 3 tcp 1040 ------- 1 0.0 3.0 18 34
+ 0.428 3 2 ack 40 ------- 1 3.0 0.0 18 79
- 0.428 3 2 ack 40 ------- 1 3.0 0.0 18 79
r 0.429 1 2 cbr 500 ------- 2 1.0 3.1 23 74
+ 0.429 2 3 cbr 500 ------- 2 1.0 3.1 23 74
+ 0.43 1 2 cbr 500 ------- 2 1.0 3.1 26 80
- 0.43 1 2 cbr 500 ------- 2 1.0 3.1 26 80
- 0.43032 2 3 cbr 500 ------- 2 1.0 3.1 12 53
- 0.43056 0 2 tcp 1040 ------- 1 0.0 3.0 28 59
r 0.432 2 3 cbr 500 ------- 2 1.0 3.1 11 50
r 0.43224 0 2 tcp 1040 ------- 1 0.0 3.0 26 52
+ 0.43224 2 3 tcp 1040 ------- 1 0.0 3.0 26 52
r 0.43232 2 0 ack 40 ------- 1 3.0 0.0 17 73
+ 0.43232 0 2 tcp 1040 ------- 1 0.0 3.0 35 81
+ 0.43232 0 2 tcp 1040 ------- 1 0.0 3.0 36 82
r 0.434 1 2 cbr 500 ------- 2 1.0 3.1 24 77
+ 0.434 2 3 cbr 500 ------- 2 1.0 3.1 24 77
- 0.43432 2 3 cbr 500 ------- 2 1.0 3.1 13 54
+ 0.435 1 2 cbr 500 ------- 2 1.0 3.1 27 83
- 0.435 1 2 cbr 500 ------- 2 1.0 3.1 27 83
r 0.43832 3 2 ack 40 ------- 1 3.0 0.0 18 79
+ 0.43832 2 0 ack 40 ------- 1 3.0 0.0 18 79
- 0.43832 2 0 ack 40 ------- 1 3.0 0.0 18 79
- 0.43832 2 3 tcp 1040 ------- 1 0.0 3.0 20 38
- 0.43888 0 2 tcp 1040 ------- 1 0.0 3.0 29 63
r 0.439 1 2 cbr 500 ------- 2 1.0 3.1 25 78
+ 0.439 2 3 cbr 500 ------- 2 1.0 3.1 25 78
+ 0.44 1 2 cbr 500 ------- 2 1.0 3.1 28 84
- 0.44 1 2 cbr 500 ------- 2 1.0 3.1 28 84
r 0.44032 2 3 tcp 1040 ------- 1 0.0 3.0 19 37
+ 0.44032 3 2 ack 40 ------- 1 3.0 0.0 19 85
- 0.44032 3 2 ack 40 ------- 1 3.0 0.0 19 85
r 0.44056 0 2 tcp 1040 ------- 1 0.0 3.0 27 58
+ 0.44056 2 3 tcp 1040 ------- 1 0.0 3.0 27 58
r 0.444 1 2 cbr 500 ------- 2 1.0 3.1 26 80
+ 0.444 2 3 cbr 500 ------- 2 1.0 3.1 26 80
r 0.44432 2 3 cbr 500 ------- 2 1.0 3.1 12 53
+ 0.445 1 2 cbr 500 ------- 2 1.0 3.1 29 86
- 0.445 1 2 cbr 500 ------- 2 1.0 3.1 29 86
- 0.44664 2 3 cbr 500 ------- 2 1.0 3.1 14 56
- 0.4472 0 2 tcp 1040 ------- 1 0.0 3.0 30 64
r 0.44832 2 3 cbr 500 ------- 2 1.0 3.1 13 54
r 0.44864 2 0 ack 40 ------- 1 3.0 0.0 18 79
+ 0.44864 0 2 tcp 1040 ------- 1 0.0 3.0 37 87
+ 0.44864 0 2 tcp 1040 ------- 1 0.0 3.0 38 88
r 0.44888 0 2 tcp 1040 ------- 1 0.0 3.0 28 59
+ 0.44888 2 3 tcp 1040 ------- 1 0.0 3.0 28 59
r 0.449 1 2 cbr 500 ------- 2 1.0 3.1 27 83
+ 0.449 2 3 cbr 500 ------- 2 1.0 3.1 27 83
+ 0.45 1 2 cbr 500 ------- 2 1.0 3.1 30 89
- 0.45 1 2 cbr 500 ------- 2 1.0 3.1 30 89
r 0.45064 3 2 ack 40 ------- 1 3.0 0.0 19 85
+ 0.45064 2 0 ack 40 ------- 1 3.0 0.0 19 85
- 0.45064 2 0 ack 40 ------- 1 3.0 0.0 19 85
- 0.45064 2 3 cbr 500 ------- 2 1.0 3.1 15 57
r 0.454 1 2 cbr 500 ------- 2 1.0 3.1 28 84
+ 0.454 2 3 cbr 500 ------- 2 1.0 3.1 28 84
- 0.45464 2 3 tcp 1040 ------- 1 0.0 3.0 21 42
+ 0.455 1 2 cbr 500 ------- 2 1.0 3.1 31 90
- 0.455 1 2 cbr 500 ------- 2 1.0 3.1 31 90
- 0.45552 0 2 tcp 1040 ------- 1 0.0 3.0 31 69
r 0.45664 2 3 tcp 1040 ------- 1 0.0 3.0 20 38
+ 0.45664 3 2 ack 40 ------- 1 3.0 0.0 20 91
- 0.45664 3 2 ack 40 ------- 1 3.0 0.0 20 91
r 0.4572 0 2 tcp 1040 ------- 1 0.0 3.0 29 63
+ 0.4572 2 3 tcp 1040 ------- 1 0.0 3.0 29 63
r 0.459 1 2 cbr 500 ------- 2 1.0 3.1 29 86
+ 0.459 2 3 cbr 500 ------- 2 1.0 3.1 29 86
+ 0.46 1 2 cbr 500 ------- 2 1.0 3.1 32 92
- 0.46 1 2 cbr 500 ------- 2 1.0 3.1 32 92
r 0.46064 2 3 cbr 500 ------- 2 1.0 3.1 14 56
r 0.46096 2 0 ack 40 ------- 1 3.0 0.0 19 85
+ 0.46096 0 2 tcp 1040 ------- 1 0.0 3.0 39 93
- 0.46296 2 3 cbr 500 ------- 2 1.0 3.1 16 60
- 0.46384 0 2 tcp 1040 ------- 1 0.0 3.0 32 70
r 0.464 1 2 cbr 500 ------- 2 1.0 3.1 30 89
+ 0.464 2 3 cbr 500 ------- 2 1.0 3.1 30 89
r 0.46464 2 3 cbr 500 ------- 2 1.0 3.1 15 57
+ 0.465 1 2 cbr 500 ------- 2 1.0 3.1 33 94
- 0.465 1 2 cbr 500 ------- 2 1.0 3.1 33 94
r 0.46552 0 2 tcp 1040 ------- 1 0.0 3.0 30 64
+ 0.46552 2 3 tcp 1040 ------- 1 0.0 3.0 30 64
r 0.46696 3 2 ack 40 ------- 1 3.0 0.0 20 91
+ 0.46696 2 0 ack 40 ------- 1 3.0 0.0 20 91
- 0.46696 2 0 ack 40 ------- 1 3.0 0.0 20 91
- 0.46696 2 3 tcp 1040 ------- 1 0.0 3.0 22 43
r 0.469 1 2 cbr 500 ------- 2 1.0 3.1 31 90
+ 0.469 2 3 cbr 500 ------- 2 1.0 3.1 31 90
+ 0.47 1 2 cbr 500 ------- 2 1.0 3.1 34 95
- 0.47 1 2 cbr 500 ------- 2 1.0 3.1 34 95
- 0.47216 0 2 tcp 1040 ------- 1 0.0 3.0 33 75
r 0.47296 2 3 tcp 1040 ------- 1 0.0 3.0 21 42
+ 0.47296 3 2 ack 40 ------- 1 3.0 0.0 21 96
- 0.47296 3 2 ack 40 ------- 1 3.0 0.0 21 96
r 0.47384 0 2 tcp 1040 ------- 1 0.0 3.0 31 69
+ 0.47384 2 3 tcp 1040 ------- 1 0.0 3.0 31 69
r 0.474 1 2 cbr 500 ------- 2 1.0 3.1 32 92
+ 0.474 2 3 cbr 500 ------- 2 1.0 3.1 32 92
+ 0.475 1 2 cbr 500 ------- 2 1.0 3.1 35 97
- 0.475 1 2 cbr 500 ------- 2 1.0 3.1 35 97
- 0.47528 2 3 cbr 500 ------- 2 1.0 3.1 17 62
r 0.47696 2 3 cbr 500 ------- 2 1.0 3.1 16 60
r 0.47728 2 0 ack 40 ------- 1 3.0 0.0 20 91
+ 0.47728 0 2 tcp 1040 ------- 1 0.0 3.0 40 98
r 0.479 1 2 cbr 500 ------- 2 1.0 3.1 33 94
+ 0.479 2 3 cbr 500 ------- 2 1.0 3.1 33 94
- 0.47928 2 3 cbr 500 ------- 2 1.0 3.1 18 65
+ 0.48 1 2 cbr 500 ------- 2 1.0 3.1 36 99
- 0.48 1 2 cbr 500 ------- 2 1.0 3.1 36 99
- 0.48048 0 2 tcp 1040 ------- 1 0.0 3.0 34 76
r 0.48216 0 2 tcp 1040 ------- 1 0.0 3.0 32 70
+ 0.48216 2 3 tcp 1040 ------- 1 0.0 3.0 32 70
r 0.48328 3 2 ack 40 ------- 1 3.0 0.0 21 96
+ 0.48328 2 0 ack 40 ------- 1 3.0 0.0 21 96
- 0.48328 2 0 ack 40 ------- 1 3.0 0.0 21 96
- 0.48328 2 3 tcp 1040 ------- 1 0.0 3.0 23 46
r 0.484 1 2 cbr 500 ------- 2 1.0 3.1 34 95
+ 0.484 2 3 cbr 500 ------- 2 1.0 3.1 34 95
+ 0.485 1 2 cbr 500 ------- 2 1.0 3.1 37 100
- 0.485 1 2 cbr 500 ------- 2 1.0 3.1 37 100
r 0.48528 2 3 tcp 1040 ------- 1 0.0 3.0 22 43
+ 0.48528 3 2 ack 40 ------- 1 3.0 0.0 22 101
- 0.48528 3 2 ack 40 ------- 1 3.0 0.0 22 101
- 0.4888 0 2 tcp 1040 ------- 1 0.0 3.0 35 81
r 0.489 1 2 cbr 500 ------- 2 1.0 3.1 35 97
+ 0.489 2 3 cbr 500 ------- 2 1.0 3.1 35 97
r 0.48928 2 3 cbr 500 ------- 2 1.0 3.1 17 62
+ 0.49 1 2 cbr 500 ------- 2 1.0 3.1 38 102
- 0.49 1 2 cbr 500 ------- 2 1.0 3.1 38 102
r 0.49048 0 2 tcp 1040 ------- 1 0.0 3.0 33 75
+ 0.49048 2 3 tcp 1040 ------- 1 0.0 3.0 33 75
- 0.4916 2 3 cbr 500 ------- 2 1.0 3.1 19 66
r 0.49328 2 3 cbr 500 ------- 2 1.0 3.1 18 65
r 0.4936 2 0 ack 40 ------- 1 3.0 0.0 21 96
+ 0.4936 0 2 tcp 1040 ------- 1 0.0 3.0 41 103
r 0.494 1 2 cbr 500 ------- 2 1.0 3.1 36 99
+ 0.494 2 3 cbr 500 ------- 2 1.0 3.1 36 99
+ 0.495 1 2 cbr 500 ------- 2 1.0 3.1 39 104
- 0.495 1 2 cbr 500 ------- 2 1.0 3.1 39 104
r 0.4956 3 2 ack 40 ------- 1 3.0 0.0 22 101
+ 0.4956 2 0 ack 40 ------- 1 3.0 0.0 22 101
- 0.4956 2 0 ack 40 ------- 1 3.0 0.0 22 101
- 0.4956 2 3 cbr 500 ------- 2 1.0 3.1 20 68
- 0.49712 0 2 tcp 1040 ------- 1 0.0 3.0 36 82
r 0.4988 0 2 tcp 1040 ------- 1 0.0 3.0 34 76
+ 0.4988 2 3 tcp 1040 ------- 1 0.0 3.0 34 76
r 0.499 1 2 cbr 500 ------- 2 1.0 3.1 37 100
+ 0.499 2 3 cbr 500 ------- 2 1.0 3.1 37 100
- 0.4996 2 3 tcp 1040 ------- 1 0.0 3.0 24 47
+ 0.5 1 2 cbr 500 ------- 2 1.0 3.1 40 105
- 0.5 1 2 cbr 500 ------- 2 1.0 3.1 40 105
r 0.5016 2 3 tcp 1040 ------- 1 0.0 3.0 23 46
+ 0.5016 3 2 ack 40 ------- 1 3.0 0.0 23 106
- 0.5016 3 2 ack 40 ------- 1 3.0 0.0 23 106
r 0.504 1 2 cbr 500 ------- 2 1.0 3.1 38 102
+ 0.504 2 3 cbr 500 ------- 2 1.0 3.1 38 102
+ 0.505 1 2 cbr 500 ------- 2 1.0 3.1 41 107
- 0.505 1 2 cbr 500 ------- 2 1.0 3.1 41 107
- 0.50544 0 2 tcp 1040 ------- 1 0.0 3.0 37 87
r 0.5056 2 3 cbr 500 ------- 2 1.0 3.1 19 66
r 0.50592 2 0 ack 40 ------- 1 3.0 0.0 22 101
+ 0.50592 0 2 tcp 1040 ------- 1 0.0 3.0 42 108
r 0.50712 0 2 tcp 1040 ------- 1 0.0 3.0 35 81
+ 0.50712 2 3 tcp 1040 ------- 1 0.0 3.0 35 81
- 0.50792 2 3 cbr 500 ------- 2 1.0 3.1 21 71
r 0.509 1 2 cbr 500 ------- 2 1.0 3.1 39 104
+ 0.509 2 3 cbr 500 ------- 2 1.0 3.1 39 104
r 0.5096 2 3 cbr 500 ------- 2 1.0 3.1 20 68
+ 0.51 1 2 cbr 500 ------- 2 1.0 3.1 42 109
- 0.51 1 2 cbr 500 ------- 2 1.0 3.1 42 109
r 0.51192 3 2 ack 40 ------- 1 3.0 0.0 23 106
+ 0.51192 2 0 ack 40 ------- 1 3.0 0.0 23 106
- 0.51192 2 0 ack 40 ------- 1 3.0 0.0 23 106
- 0.51192 2 3 tcp 1040 ------- 1 0.0 3.0 25 51
- 0.51376 0 2 tcp 1040 ------- 1 0.0 3.0 38 88
r 0.514 1 2 cbr 500 ------- 2 1.0 3.1 40 105
+ 0.514 2 3 cbr 500 ------- 2 1.0 3.1 40 105
+ 0.515 1 2 cbr 500 ------- 2 1.0 3.1 43 110
- 0.515 1 2 cbr 500 ------- 2 1.0 3.1 43 110
r 0.51544 0 2 tcp 1040 ------- 1 0.0 3.0 36 82
+ 0.51544 2 3 tcp 1040 ------- 1 0.0 3.0 36 82
r 0.51792 2 3 tcp 1040 ------- 1 0.0 3.0 24 47
+ 0.51792 3 2 ack 40 ------- 1 3.0 0.0 24 111
- 0.51792 3 2 ack 40 ------- 1 3.0 0.0 24 111
r 0.519 1 2 cbr 500 ------- 2 1.0 3.1 41 107
+ 0.519 2 3 cbr 500 ------- 2 1.0 3.1 41 107
+ 0.52 1 2 cbr 500 ------- 2 1.0 3.1 44 112
- 0.52 1 2 cbr 500 ------- 2 1.0 3.1 44 112
- 0.52024 2 3 cbr 500 ------- 2 1.0 3.1 22 72
r 0.52192 2 3 cbr 500 ------- 2 1.0 3.1 21 71
- 0.52208 0 2 tcp 1040 ------- 1 0.0 3.0 39 93
r 0.52224 2 0 ack 40 ------- 1 3.0 0.0 23 106
+ 0.52224 0 2 tcp 1040 ------- 1 0.0 3.0 43 113
r 0.52376 0 2 tcp 1040 ------- 1 0.0 3.0 37 87
+ 0.52376 2 3 tcp 1040 ------- 1 0.0 3.0 37 87
r 0.524 1 2 cbr 500 ------- 2 1.0 3.1 42 109
+ 0.524 2 3 cbr 500 ------- 2 1.0 3.1 42 109
- 0.52424 2 3 cbr 500 ------- 2 1.0 3.1 23 74
+ 0.525 1 2 cbr 500 ------- 2 1.0 3.1 45 114
- 0.525 1 2 cbr 500 ------- 2 1.0 3.1 45 114
r 0.52824 3 2 ack 40 ------- 1 3.0 0.0 24 111
+ 0.52824 2 0 ack 40 ------- 1 3.0 0.0 24 111
- 0.52824 2 0 ack 40 ------- 1 3.0 0.0 24 111
- 0.52824 2 3 tcp 1040 ------- 1 0.0 3.0 26 52
r 0.529 1 2 cbr 500 ------- 2 1.0 3.1 43 110
+ 0.529 2 3 cbr 500 ------- 2 1.0 3.1 43 110
+ 0.53 1 2 cbr 500 ------- 2 1.0 3.1 46 115
- 0.53 1 2 cbr 500 ------- 2 1.0 3.1 46 115
r 0.53024 2 3 tcp 1040 ------- 1 0.0 3.0 25 51
+ 0.53024 3 2 ack 40 ------- 1 3.0 0.0 25 116
- 0.53024 3 2 ack 40 ------- 1 3.0 0.0 25 116
- 0.5304 0 2 tcp 1040 ------- 1 0.0 3.0 40 98
r 0.53208 0 2 tcp 1040 ------- 1 0.0 3.0 38 88
+ 0.53208 2 3 tcp 1040 ------- 1 0.0 3.0 38 88
r 0.534 1 2 cbr 500 ------- 2 1.0 3.1 44 112
+ 0.534 2 3 cbr 500 ------- 2 1.0 3.1 44 112
r 0.53424 2 3 cbr 500 ------- 2 1.0 3.1 22 72
+ 0.535 1 2 cbr 500 ------- 2 1.0 3.1 47 117
- 0.535 1 2 cbr 500 ------- 2 1.0 3.1 47 117
- 0.53656 2 3 cbr 500 ------- 2 1.0 3.1 24 77
r 0.53824 2 3 cbr 500 ------- 2 1.0 3.1 23 74
r 0.53856 2 0 ack 40 ------- 1 3.0 0.0 24 111
+ 0.53856 0 2 tcp 1040 ------- 1 0.0 3.0 44 118
- 0.53872 0 2 tcp 1040 ------- 1 0.0 3.0 41 103
r 0.539 1 2 cbr 500 ------- 2 1.0 3.1 45 114
+ 0.539 2 3 cbr 500 ------- 2 1.0 3.1 45 114
+ 0.54 1 2 cbr 500 ------- 2 1.0 3.1 48 119
- 0.54 1 2 cbr 500 ------- 2 1.0 3.1 48 119
r 0.5404 0 2 tcp 1040 ------- 1 0.0 3.0 39 93
+ 0.5404 2 3 tcp 1040 ------- 1 0.0 3.0 39 93
r 0.54056 3 2 ack 40 ------- 1 3.0 0.0 25 116
+ 0.54056 2 0 ack 40 ------- 1 3.0 0.0 25 116
- 0.54056 2 0 ack 40 ------- 1 3.0 0.0 25 116
- 0.54056 2 3 cbr 500 ------- 2 1.0 3.1 25 78
r 0.544 1 2 cbr 500 ------- 2 1.0 3.1 46 115
+ 0.544 2 3 cbr 500 ------- 2 1.0 3.1 46 115
- 0.54456 2 3 tcp 1040 ------- 1 0.0 3.0 27 58
+ 0.545 1 2 cbr 500 ------- 2 1.0 3.1 49 120
- 0.545 1 2 cbr 500 ------- 2 1.0 3.1 49 120
r 0.54656 2 3 tcp 1040 ------- 1 0.0 3.0 26 52
+ 0.54656 3 2 ack 40 ------- 1 3.0 0.0 26 121
- 0.54656 3 2 ack 40 ------- 1 3.0 0.0 26 121
- 0.54704 0 2 tcp 1040 ------- 1 0.0 3.0 42 108
r 0.54872 0 2 tcp 1040 ------- 1 0.0 3.0 40 98
+ 0.54872 2 3 tcp 1040 ------- 1 0.0 3.0 40 98
r 0.549 1 2 cbr 500 ------- 2 1.0 3.1 47 117
+ 0.549 2 3 cbr 500 ------- 2 1.0 3.1 47 117
+ 0.55 1 2 cbr 500 ------- 2 1.0 3.1 50 122
- 0.55 1 2 cbr 500 ------- 2 1.0 3.1 50 122
r 0.55056 2 3 cbr 500 ------- 2 1.0 3.1 24 77
r 0.55088 2 0 ack 40 ------- 1 3.0 0.0 25 116
+ 0.55088 0 2 tcp 1040 ------- 1 0.0 3.0 45 123
- 0.55288 2 3 cbr 500 ------- 2 1.0 3.1 26 80
r 0.554 1 2 cbr 500 ------- 2 1.0 3.1 48 119
+ 0.554 2 3 cbr 500 ------- 2 1.0 3.1 48 119
r 0.55456 2 3 cbr 500 ------- 2 1.0 3.1 25 78
+ 0.555 1 2 cbr 500 ------- 2 1.0 3.1 51 124
- 0.555 1 2 cbr 500 ------- 2 1.0 3.1 51 124
- 0.55536 0 2 tcp 1040 ------- 1 0.0 3.0 43 113
r 0.55688 3 2 ack 40 ------- 1 3.0 0.0 26 121
+ 0.55688 2 0 ack 40 ------- 1 3.0 0.0 26 121
- 0.55688 2 0 ack 40 ------- 1 3.0 0.0 26 121
- 0.55688 2 3 tcp 1040 ------- 1 0.0 3.0 28 59
r 0.55704 0 2 tcp 1040 ------- 1 0.0 3.0 41 103
+ 0.55704 2 3 tcp 1040 ------- 1 0.0 3.0 41 103
r 0.559 1 2 cbr 500 ------- 2 1.0 3.1 49 120
+ 0.559 2 3 cbr 500 ------- 2 1.0 3.1 49 120
+ 0.56 1 2 cbr 500 ------- 2 1.0 3.1 52 125
- 0.56 1 2 cbr 500 ------- 2 1.0 3.1 52 125
r 0.56288 2 3 tcp 1040 ------- 1 0.0 3.0 27 58
+ 0.56288 3 2 ack 40 ------- 1 3.0 0.0 27 126
- 0.56288 3 2 ack 40 ------- 1 3.0 0.0 27 126
- 0.56368 0 2 tcp 1040 ------- 1 0.0 3.0 44 118
r 0.564 1 2 cbr 500 ------- 2 1.0 3.1 50 122
+ 0.564 2 3 cbr 500 ------- 2 1.0 3.1 50 122
+ 0.565 1 2 cbr 500 ------- 2 1.0 3.1 53 127
- 0.565 1 2 cbr 500 ------- 2 1.0 3.1 53 127
- 0.5652 2 3 cbr 500 ------- 2 1.0 3.1 27 83
r 0.56536 0 2 tcp 1040 ------- 1 0.0 3.0 42 108
+ 0.56536 2 3 tcp 1040 ------- 1 0.0 3.0 42 108
r 0.56688 2 3 cbr 500 ------- 2 1.0 3.1 26 80
r 0.5672 2 0 ack 40 ------- 1 3.0 0.0 26 121
+ 0.5672 0 2 tcp 1040 ------- 1 0.0 3.0 46 128
r 0.569 1 2 cbr 500 ------- 2 1.0 3.1 51 124
+ 0.569 2 3 cbr 500 ------- 2 1.0 3.1 51 124