n -t 0 -s 0 -S DLABEL -l "TCP1" -L ""
n -t 0 -s 4 -S DLABEL -l "SINK1" -L ""
n -t 0 -s 5 -S DLABEL -l "TCP2" -L ""
n -t 0 -s 1 -S DLABEL -l "SINK2" -L ""
V -t * -v 1.0a5 -a 0
A -t * -n 1 -p 0 -o 0xffffffff -c 31 -a 1
A -t * -h 1 -m 2147483647 -s 0
c -t * -i 1 -n Blue
c -t * -i 2 -n Red
n -t * -a 4 -s 4 -S UP -v circle -c black -i black
n -t * -a 0 -s 0 -S UP -v circle -c black -i black
n -t * -a 5 -s 5 -S UP -v circle -c black -i black
n -t * -a 1 -s 1 -S UP -v circle -c black -i black
n -t * -a 2 -s 2 -S UP -v circle -c black -i black
n -t * -a 3 -s 3 -S UP -v circle -c black -i black
l -t * -s 0 -d 2 -S UP -r 2000000 -D 0.01 -c black -o right-down
l -t * -s 1 -d 2 -S UP -r 2000000 -D 0.01 -c black -o right-up
l -t * -s 2 -d 3 -S UP -r 200000 -D 0.10000000000000001 -c black -o right
X -t * -n 6 -r 0.5Mb -D 40ms -o left
L -t * -s 6 -d 3 -o up
L -t * -s 6 -d 4 -o down
L -t * -s 6 -d 5 -o up
+ -t 0.1 -s 0 -d 2 -p tcp -e 40 -c 1 -i 0 -a 1 -x {0.0 4.0 0 ------- null}
- -t 0.1 -s 0 -d 2 -p tcp -e 40 -c 1 -i 0 -a 1 -x {0.0 4.0 0 ------- null}
h -t 0.1 -s 0 -d 2 -p tcp -e 40 -c 1 -i 0 -a 1 -x {0.0 4.0 -1 ------- null}
r -t 0.11016 -s 0 -d 2 -p tcp -e 40 -c 1 -i 0 -a 1 -x {0.0 4.0 0 ------- null}
+ -t 0.11016 -s 2 -d 3 -p tcp -e 40 -c 1 -i 0 -a 1 -x {0.0 4.0 0 ------- null}
- -t 0.11016 -s 2 -d 3 -p tcp -e 40 -c 1 -i 0 -a 1 -x {0.0 4.0 0 ------- null}
h -t 0.11016 -s 2 -d 3 -p tcp -e 40 -c 1 -i 0 -a 1 -x {0.0 4.0 -1 ------- null}
h -t 0.2 -s 5 -d 6 -p tcp -e 40 -c 2 -i 1 -a 2 -x {5.0 1.0 0 ------- null}
r -t 0.21176 -s 2 -d 3 -p tcp -e 40 -c 1 -i 0 -a 1 -x {0.0 4.0 0 ------- null}
h -t 0.21176 -s 3 -d 6 -p tcp -e 40 -c 1 -i 0 -a 1 -x {0.0 4.0 0 ------- null}
+ -t 0.24 -s 5 -d 6 -p tcp -e 40 -c 2 -i 1 -a 2 -x {5.0 1.0 0 ------- null}
- -t 0.24 -s 5 -d 6 -p tcp -e 40 -c 2 -i 1 -a 2 -x {5.0 1.0 0 ------- null}
h -t 0.24 -s 5 -d 6 -p tcp -e 40 -c 2 -i 1 -a 2 -x {5.0 1.0 -1 ------- null}
+ -t 0.25176 -s 3 -d 6 -p tcp -e 40 -c 1 -i 0 -a 1 -x {0.0 4.0 0 ------- null}
- -t 0.25176 -s 3 -d 6 -p tcp -e 40 -c 1 -i 0 -a 1 -x {0.0 4.0 0 ------- null}
h -t 0.25176 -s 3 -d 6 -p tcp -e 40 -c 1 -i 0 -a 1 -x {0.0 4.0 -1 ------- null}
r -t 0.281028 -s 6 -d 3 -p tcp -e 40 -c 2 -i 1 -a 2 -x {5.0 1.0 0 ------- null}
+ -t 0.281028 -s 3 -d 2 -p tcp -e 40 -c 2 -i 1 -a 2 -x {5.0 1.0 0 ------- null}
- -t 0.281028 -s 3 -d 2 -p tcp -e 40 -c 2 -i 1 -a 2 -x {5.0 1.0 0 ------- null}
h -t 0.281028 -s 3 -d 2 -p tcp -e 40 -c 2 -i 1 -a 2 -x {5.0 1.0 -1 ------- null}
r -t 0.292788 -s 6 -d 4 -p tcp -e 40 -c 1 -i 0 -a 1 -x {0.0 4.0 0 ------- null}
h -t 0.292788 -s 4 -d 6 -p ack -e 40 -c 1 -i 2 -a 1 -x {4.0 0.0 0 ------- null}
+ -t 0.332788 -s 4 -d 6 -p ack -e 40 -c 1 -i 2 -a 1 -x {4.0 0.0 0 ------- null}
- -t 0.332788 -s 4 -d 6 -p ack -e 40 -c 1 -i 2 -a 1 -x {4.0 0.0 0 ------- null}
h -t 0.332788 -s 4 -d 6 -p ack -e 40 -c 1 -i 2 -a 1 -x {4.0 0.0 -1 ------- null}
r -t 0.373816 -s 6 -d 3 -p ack -e 40 -c 1 -i 2 -a 1 -x {4.0 0.0 0 ------- null}
+ -t 0.373816 -s 3 -d 2 -p ack -e 40 -c 1 -i 2 -a 1 -x {4.0 0.0 0 ------- null}
- -t 0.373816 -s 3 -d 2 -p ack -e 40 -c 1 -i 2 -a 1 -x {4.0 0.0 0 ------- null}
h -t 0.373816 -s 3 -d 2 -p ack -e 40 -c 1 -i 2 -a 1 -x {4.0 0.0 -1 ------- null}
r -t 0.382628 -s 3 -d 2 -p tcp -e 40 -c 2 -i 1 -a 2 -x {5.0 1.0 0 ------- null}
+ -t 0.382628 -s 2 -d 1 -p tcp -e 40 -c 2 -i 1 -a 2 -x {5.0 1.0 0 ------- null}
- -t 0.382628 -s 2 -d 1 -p tcp -e 40 -c 2 -i 1 -a 2 -x {5.0 1.0 0 ------- null}
h -t 0.382628 -s 2 -d 1 -p tcp -e 40 -c 2 -i 1 -a 2 -x {5.0 1.0 -1 ------- null}
r -t 0.392788 -s 2 -d 1 -p tcp -e 40 -c 2 -i 1 -a 2 -x {5.0 1.0 0 ------- null}
+ -t 0.392788 -s 1 -d 2 -p ack -e 40 -c 2 -i 3 -a 2 -x {1.0 5.0 0 ------- null}
- -t 0.392788 -s 1 -d 2 -p ack -e 40 -c 2 -i 3 -a 2 -x {1.0 5.0 0 ------- null}
h -t 0.392788 -s 1 -d 2 -p ack -e 40 -c 2 -i 3 -a 2 -x {1.0 5.0 -1 ------- null}
r -t 0.402948 -s 1 -d 2 -p ack -e 40 -c 2 -i 3 -a 2 -x {1.0 5.0 0 ------- null}
+ -t 0.402948 -s 2 -d 3 -p ack -e 40 -c 2 -i 3 -a 2 -x {1.0 5.0 0 ------- null}
- -t 0.402948 -s 2 -d 3 -p ack -e 40 -c 2 -i 3 -a 2 -x {1.0 5.0 0 ------- null}
h -t 0.402948 -s 2 -d 3 -p ack -e 40 -c 2 -i 3 -a 2 -x {1.0 5.0 -1 ------- null}
r -t 0.475416 -s 3 -d 2 -p ack -e 40 -c 1 -i 2 -a 1 -x {4.0 0.0 0 ------- null}
+ -t 0.475416 -s 2 -d 0 -p ack -e 40 -c 1 -i 2 -a 1 -x {4.0 0.0 0 ------- null}
- -t 0.475416 -s 2 -d 0 -p ack -e 40 -c 1 -i 2 -a 1 -x {4.0 0.0 0 ------- null}
h -t 0.475416 -s 2 -d 0 -p ack -e 40 -c 1 -i 2 -a 1 -x {4.0 0.0 -1 ------- null}
r -t 0.485576 -s 2 -d 0 -p ack -e 40 -c 1 -i 2 -a 1 -x {4.0 0.0 0 ------- null}
+ -t 0.485576 -s 0 -d 2 -p tcp -e 1040 -c 1 -i 4 -a 1 -x {0.0 4.0 1 ------- null}
- -t 0.485576 -s 0 -d 2 -p tcp -e 1040 -c 1 -i 4 -a 1 -x {0.0 4.0 1 ------- null}
h -t 0.485576 -s 0 -d 2 -p tcp -e 1040 -c 1 -i 4 -a 1 -x {0.0 4.0 -1 ------- null}
+ -t 0.485576 -s 0 -d 2 -p tcp -e 1040 -c 1 -i 5 -a 1 -x {0.0 4.0 2 ------- null}
- -t 0.489736 -s 0 -d 2 -p tcp -e 1040 -c 1 -i 5 -a 1 -x {0.0 4.0 2 ------- null}
h -t 0.489736 -s 0 -d 2 -p tcp -e 1040 -c 1 -i 5 -a 1 -x {0.0 4.0 -1 ------- null}
r -t 0.499736 -s 0 -d 2 -p tcp -e 1040 -c 1 -i 4 -a 1 -x {0.0 4.0 1 ------- null}
+ -t 0.499736 -s 2 -d 3 -p tcp -e 1040 -c 1 -i 4 -a 1 -x {0.0 4.0 1 ------- null}
- -t 0.499736 -s 2 -d 3 -p tcp -e 1040 -c 1 -i 4 -a 1 -x {0.0 4.0 1 ------- null}
h -t 0.499736 -s 2 -d 3 -p tcp -e 1040 -c 1 -i 4 -a 1 -x {0.0 4.0 -1 ------- null}
r -t 0.503896 -s 0 -d 2 -p tcp -e 1040 -c 1 -i 5 -a 1 -x {0.0 4.0 2 ------- null}
+ -t 0.503896 -s 2 -d 3 -p tcp -e 1040 -c 1 -i 5 -a 1 -x {0.0 4.0 2 ------- null}
r -t 0.504548 -s 2 -d 3 -p ack -e 40 -c 2 -i 3 -a 2 -x {1.0 5.0 0 ------- null}
h -t 0.504548 -s 3 -d 6 -p ack -e 40 -c 2 -i 3 -a 2 -x {1.0 5.0 0 ------- null}
- -t 0.541336 -s 2 -d 3 -p tcp -e 1040 -c 1 -i 5 -a 1 -x {0.0 4.0 2 ------- null}
h -t 0.541336 -s 2 -d 3 -p tcp -e 1040 -c 1 -i 5 -a 1 -x {0.0 4.0 -1 ------- null}
+ -t 0.544548 -s 3 -d 6 -p ack -e 40 -c 2 -i 3 -a 2 -x {1.0 5.0 0 ------- null}
- -t 0.544548 -s 3 -d 6 -p ack -e 40 -c 2 -i 3 -a 2 -x {1.0 5.0 0 ------- null}
h -t 0.544548 -s 3 -d 6 -p ack -e 40 -c 2 -i 3 -a 2 -x {1.0 5.0 -1 ------- null}
r -t 0.585576 -s 6 -d 5 -p ack -e 40 -c 2 -i 3 -a 2 -x {1.0 5.0 0 ------- null}
h -t 0.585576 -s 5 -d 6 -p tcp -e 1040 -c 2 -i 6 -a 2 -x {5.0 1.0 1 ------- null}
h -t 0.585576 -s 5 -d 6 -p tcp -e 1040 -c 2 -i 7 -a 2 -x {5.0 1.0 2 ------- null}
+ -t 0.625576 -s 5 -d 6 -p tcp -e 1040 -c 2 -i 6 -a 2 -x {5.0 1.0 1 ------- null}
- -t 0.625576 -s 5 -d 6 -p tcp -e 1040 -c 2 -i 6 -a 2 -x {5.0 1.0 1 ------- null}
h -t 0.625576 -s 5 -d 6 -p tcp -e 1040 -c 2 -i 6 -a 2 -x {5.0 1.0 -1 ------- null}
+ -t 0.625576 -s 5 -d 6 -p tcp -e 1040 -c 2 -i 7 -a 2 -x {5.0 1.0 2 ------- null}
r -t 0.641336 -s 2 -d 3 -p tcp -e 1040 -c 1 -i 4 -a 1 -x {0.0 4.0 1 ------- null}
h -t 0.641336 -s 3 -d 6 -p tcp -e 1040 -c 1 -i 4 -a 1 -x {0.0 4.0 1 ------- null}
- -t 0.642632 -s 5 -d 6 -p tcp -e 1040 -c 2 -i 7 -a 2 -x {5.0 1.0 2 ------- null}
h -t 0.642632 -s 5 -d 6 -p tcp -e 1040 -c 2 -i 7 -a 2 -x {5.0 1.0 -1 ------- null}
+ -t 0.681336 -s 3 -d 6 -p tcp -e 1040 -c 1 -i 4 -a 1 -x {0.0 4.0 1 ------- null}
- -t 0.681336 -s 3 -d 6 -p tcp -e 1040 -c 1 -i 4 -a 1 -x {0.0 4.0 1 ------- null}
h -t 0.681336 -s 3 -d 6 -p tcp -e 1040 -c 1 -i 4 -a 1 -x {0.0 4.0 -1 ------- null}
r -t 0.682444 -s 6 -d 3 -p tcp -e 1040 -c 2 -i 6 -a 2 -x {5.0 1.0 1 ------- null}
+ -t 0.682444 -s 3 -d 2 -p tcp -e 1040 -c 2 -i 6 -a 2 -x {5.0 1.0 1 ------- null}
- -t 0.682444 -s 3 -d 2 -p tcp -e 1040 -c 2 -i 6 -a 2 -x {5.0 1.0 1 ------- null}
h -t 0.682444 -s 3 -d 2 -p tcp -e 1040 -c 2 -i 6 -a 2 -x {5.0 1.0 -1 ------- null}
r -t 0.682936 -s 2 -d 3 -p tcp -e 1040 -c 1 -i 5 -a 1 -x {0.0 4.0 2 ------- null}
h -t 0.682936 -s 3 -d 6 -p tcp -e 1040 -c 1 -i 5 -a 1 -x {0.0 4.0 2 ------- null}
r -t 0.6995 -s 6 -d 3 -p tcp -e 1040 -c 2 -i 7 -a 2 -x {5.0 1.0 2 ------- null}
+ -t 0.6995 -s 3 -d 2 -p tcp -e 1040 -c 2 -i 7 -a 2 -x {5.0 1.0 2 ------- null}
+ -t 0.722936 -s 3 -d 6 -p tcp -e 1040 -c 1 -i 5 -a 1 -x {0.0 4.0 2 ------- null}
- -t 0.722936 -s 3 -d 6 -p tcp -e 1040 -c 1 -i 5 -a 1 -x {0.0 4.0 2 ------- null}
h -t 0.722936 -s 3 -d 6 -p tcp -e 1040 -c 1 -i 5 -a 1 -x {0.0 4.0 -1 ------- null}
- -t 0.724044 -s 3 -d 2 -p tcp -e 1040 -c 2 -i 7 -a 2 -x {5.0 1.0 2 ------- null}
h -t 0.724044 -s 3 -d 2 -p tcp -e 1040 -c 2 -i 7 -a 2 -x {5.0 1.0 -1 ------- null}
r -t 0.738204 -s 6 -d 4 -p tcp -e 1040 -c 1 -i 4 -a 1 -x {0.0 4.0 1 ------- null}
h -t 0.738204 -s 4 -d 6 -p ack -e 40 -c 1 -i 8 -a 1 -x {4.0 0.0 1 ------- null}
+ -t 0.778204 -s 4 -d 6 -p ack -e 40 -c 1 -i 8 -a 1 -x {4.0 0.0 1 ------- null}
- -t 0.778204 -s 4 -d 6 -p ack -e 40 -c 1 -i 8 -a 1 -x {4.0 0.0 1 ------- null}
h -t 0.778204 -s 4 -d 6 -p ack -e 40 -c 1 -i 8 -a 1 -x {4.0 0.0 -1 ------- null}
r -t 0.779804 -s 6 -d 4 -p tcp -e 1040 -c 1 -i 5 -a 1 -x {0.0 4.0 2 ------- null}
h -t 0.779804 -s 4 -d 6 -p ack -e 40 -c 1 -i 9 -a 1 -x {4.0 0.0 2 ------- null}
r -t 0.819232 -s 6 -d 3 -p ack -e 40 -c 1 -i 8 -a 1 -x {4.0 0.0 1 ------- null}
+ -t 0.819232 -s 3 -d 2 -p ack -e 40 -c 1 -i 8 -a 1 -x {4.0 0.0 1 ------- null}
- -t 0.819232 -s 3 -d 2 -p ack -e 40 -c 1 -i 8 -a 1 -x {4.0 0.0 1 ------- null}
h -t 0.819232 -s 3 -d 2 -p ack -e 40 -c 1 -i 8 -a 1 -x {4.0 0.0 -1 ------- null}
+ -t 0.819804 -s 4 -d 6 -p ack -e 40 -c 1 -i 9 -a 1 -x {4.0 0.0 2 ------- null}
- -t 0.819804 -s 4 -d 6 -p ack -e 40 -c 1 -i 9 -a 1 -x {4.0 0.0 2 ------- null}
h -t 0.819804 -s 4 -d 6 -p ack -e 40 -c 1 -i 9 -a 1 -x {4.0 0.0 -1 ------- null}
r -t 0.824044 -s 3 -d 2 -p tcp -e 1040 -c 2 -i 6 -a 2 -x {5.0 1.0 1 ------- null}
+ -t 0.824044 -s 2 -d 1 -p tcp -e 1040 -c 2 -i 6 -a 2 -x {5.0 1.0 1 ------- null}
- -t 0.824044 -s 2 -d 1 -p tcp -e 1040 -c 2 -i 6 -a 2 -x {5.0 1.0 1 ------- null}
h -t 0.824044 -s 2 -d 1 -p tcp -e 1040 -c 2 -i 6 -a 2 -x {5.0 1.0 -1 ------- null}
r -t 0.838204 -s 2 -d 1 -p tcp -e 1040 -c 2 -i 6 -a 2 -x {5.0 1.0 1 ------- null}
+ -t 0.838204 -s 1 -d 2 -p ack -e 40 -c 2 -i 10 -a 2 -x {1.0 5.0 1 ------- null}
- -t 0.838204 -s 1 -d 2 -p ack -e 40 -c 2 -i 10 -a 2 -x {1.0 5.0 1 ------- null}
h -t 0.838204 -s 1 -d 2 -p ack -e 40 -c 2 -i 10 -a 2 -x {1.0 5.0 -1 ------- null}
r -t 0.848364 -s 1 -d 2 -p ack -e 40 -c 2 -i 10 -a 2 -x {1.0 5.0 1 ------- null}
+ -t 0.848364 -s 2 -d 3 -p ack -e 40 -c 2 -i 10 -a 2 -x {1.0 5.0 1 ------- null}
- -t 0.848364 -s 2 -d 3 -p ack -e 40 -c 2 -i 10 -a 2 -x {1.0 5.0 1 ------- null}
h -t 0.848364 -s 2 -d 3 -p ack -e 40 -c 2 -i 10 -a 2 -x {1.0 5.0 -1 ------- null}
r -t 0.860832 -s 6 -d 3 -p ack -e 40 -c 1 -i 9 -a 1 -x {4.0 0.0 2 ------- null}
+ -t 0.860832 -s 3 -d 2 -p ack -e 40 -c 1 -i 9 -a 1 -x {4.0 0.0 2 ------- null}
- -t 0.860832 -s 3 -d 2 -p ack -e 40 -c 1 -i 9 -a 1 -x {4.0 0.0 2 ------- null}
h -t 0.860832 -s 3 -d 2 -p ack -e 40 -c 1 -i 9 -a 1 -x {4.0 0.0 -1 ------- null}
r -t 0.865644 -s 3 -d 2 -p tcp -e 1040 -c 2 -i 7 -a 2 -x {5.0 1.0 2 ------- null}
+ -t 0.865644 -s 2 -d 1 -p tcp -e 1040 -c 2 -i 7 -a 2 -x {5.0 1.0 2 ------- null}
- -t 0.865644 -s 2 -d 1 -p tcp -e 1040 -c 2 -i 7 -a 2 -x {5.0 1.0 2 ------- null}
h -t 0.865644 -s 2 -d 1 -p tcp -e 1040 -c 2 -i 7 -a 2 -x {5.0 1.0 -1 ------- null}
r -t 0.879804 -s 2 -d 1 -p tcp -e 1040 -c 2 -i 7 -a 2 -x {5.0 1.0 2 ------- null}
+ -t 0.879804 -s 1 -d 2 -p ack -e 40 -c 2 -i 11 -a 2 -x {1.0 5.0 2 ------- null}
- -t 0.879804 -s 1 -d 2 -p ack -e 40 -c 2 -i 11 -a 2 -x {1.0 5.0 2 ------- null}
h -t 0.879804 -s 1 -d 2 -p ack -e 40 -c 2 -i 11 -a 2 -x {1.0 5.0 -1 ------- null}
r -t 0.889964 -s 1 -d 2 -p ack -e 40 -c 2 -i 11 -a 2 -x {1.0 5.0 2 ------- null}
+ -t 0.889964 -s 2 -d 3 -p ack -e 40 -c 2 -i 11 -a 2 -x {1.0 5.0 2 ------- null}
- -t 0.889964 -s 2 -d 3 -p ack -e 40 -c 2 -i 11 -a 2 -x {1.0 5.0 2 ------- null}
h -t 0.889964 -s 2 -d 3 -p ack -e 40 -c 2 -i 11 -a 2 -x {1.0 5.0 -1 ------- null}
r -t 0.920832 -s 3 -d 2 -p ack -e 40 -c 1 -i 8 -a 1 -x {4.0 0.0 1 ------- null}
+ -t 0.920832 -s 2 -d 0 -p ack -e 40 -c 1 -i 8 -a 1 -x {4.0 0.0 1 ------- null}
- -t 0.920832 -s 2 -d 0 -p ack -e 40 -c 1 -i 8 -a 1 -x {4.0 0.0 1 ------- null}
h -t 0.920832 -s 2 -d 0 -p ack -e 40 -c 1 -i 8 -a 1 -x {4.0 0.0 -1 ------- null}
r -t 0.930992 -s 2 -d 0 -p ack -e 40 -c 1 -i 8 -a 1 -x {4.0 0.0 1 ------- null}
+ -t 0.930992 -s 0 -d 2 -p tcp -e 1040 -c 1 -i 12 -a 1 -x {0.0 4.0 3 ------- null}
- -t 0.930992 -s 0 -d 2 -p tcp -e 1040 -c 1 -i 12 -a 1 -x {0.0 4.0 3 ------- null}
h -t 0.930992 -s 0 -d 2 -p tcp -e 1040 -c 1 -i 12 -a 1 -x {0.0 4.0 -1 ------- null}
+ -t 0.930992 -s 0 -d 2 -p tcp -e 1040 -c 1 -i 13 -a 1 -x {0.0 4.0 4 ------- null}
- -t 0.935152 -s 0 -d 2 -p tcp -e 1040 -c 1 -i 13 -a 1 -x {0.0 4.0 4 ------- null}
h -t 0.935152 -s 0 -d 2 -p tcp -e 1040 -c 1 -i 13 -a 1 -x {0.0 4.0 -1 ------- null}
r -t 0.945152 -s 0 -d 2 -p tcp -e 1040 -c 1 -i 12 -a 1 -x {0.0 4.0 3 ------- null}
+ -t 0.945152 -s 2 -d 3 -p tcp -e 1040 -c 1 -i 12 -a 1 -x {0.0 4.0 3 ------- null}
- -t 0.945152 -s 2 -d 3 -p tcp -e 1040 -c 1 -i 12 -a 1 -x {0.0 4.0 3 ------- null}
h -t 0.945152 -s 2 -d 3 -p tcp -e 1040 -c 1 -i 12 -a 1 -x {0.0 4.0 -1 ------- null}
r -t 0.949312 -s 0 -d 2 -p tcp -e 1040 -c 1 -i 13 -a 1 -x {0.0 4.0 4 ------- null}
+ -t 0.949312 -s 2 -d 3 -p tcp -e 1040 -c 1 -i 13 -a 1 -x {0.0 4.0 4 ------- null}
r -t 0.949964 -s 2 -d 3 -p ack -e 40 -c 2 -i 10 -a 2 -x {1.0 5.0 1 ------- null}
h -t 0.949964 -s 3 -d 6 -p ack -e 40 -c 2 -i 10 -a 2 -x {1.0 5.0 1 ------- null}
r -t 0.962432 -s 3 -d 2 -p ack -e 40 -c 1 -i 9 -a 1 -x {4.0 0.0 2 ------- null}
+ -t 0.962432 -s 2 -d 0 -p ack -e 40 -c 1 -i 9 -a 1 -x {4.0 0.0 2 ------- null}
- -t 0.962432 -s 2 -d 0 -p ack -e 40 -c 1 -i 9 -a 1 -x {4.0 0.0 2 ------- null}
h -t 0.962432 -s 2 -d 0 -p ack -e 40 -c 1 -i 9 -a 1 -x {4.0 0.0 -1 ------- null}
r -t 0.972592 -s 2 -d 0 -p ack -e 40 -c 1 -i 9 -a 1 -x {4.0 0.0 2 ------- null}
+ -t 0.972592 -s 0 -d 2 -p tcp -e 1040 -c 1 -i 14 -a 1 -x {0.0 4.0 5 ------- null}
- -t 0.972592 -s 0 -d 2 -p tcp -e 1040 -c 1 -i 14 -a 1 -x {0.0 4.0 5 ------- null}
h -t 0.972592 -s 0 -d 2 -p tcp -e 1040 -c 1 -i 14 -a 1 -x {0.0 4.0 -1 ------- null}
+ -t 0.972592 -s 0 -d 2 -p tcp -e 1040 -c 1 -i 15 -a 1 -x {0.0 4.0 6 ------- null}
- -t 0.976752 -s 0 -d 2 -p tcp -e 1040 -c 1 -i 15 -a 1 -x {0.0 4.0 6 ------- null}
h -t 0.976752 -s 0 -d 2 -p tcp -e 1040 -c 1 -i 15 -a 1 -x {0.0 4.0 -1 ------- null}
- -t 0.986752 -s 2 -d 3 -p tcp -e 1040 -c 1 -i 13 -a 1 -x {0.0 4.0 4 ------- null}
h -t 0.986752 -s 2 -d 3 -p tcp -e 1040 -c 1 -i 13 -a 1 -x {0.0 4.0 -1 ------- null}
r -t 0.986752 -s 0 -d 2 -p tcp -e 1040 -c 1 -i 14 -a 1 -x {0.0 4.0 5 ------- null}
+ -t 0.986752 -s 2 -d 3 -p tcp -e 1040 -c 1 -i 14 -a 1 -x {0.0 4.0 5 ------- null}
+ -t 0.989964 -s 3 -d 6 -p ack -e 40 -c 2 -i 10 -a 2 -x {1.0 5.0 1 ------- null}
- -t 0.989964 -s 3 -d 6 -p ack -e 40 -c 2 -i 10 -a 2 -x {1.0 5.0 1 ------- null}
h -t 0.989964 -s 3 -d 6 -p ack -e 40 -c 2 -i 10 -a 2 -x {1.0 5.0 -1 ------- null}
r -t 0.990912 -s 0 -d 2 -p tcp -e 1040 -c 1 -i 15 -a 1 -x {0.0 4.0 6 ------- null}
+ -t 0.990912 -s 2 -d 3 -p tcp -e 1040 -c 1 -i 15 -a 1 -x {0.0 4.0 6 ------- null}
r -t 0.991564 -s 2 -d 3 -p ack -e 40 -c 2 -i 11 -a 2 -x {1.0 5.0 2 ------- null}
h -t 0.991564 -s 3 -d 6 -p ack -e 40 -c 2 -i 11 -a 2 -x {1.0 5.0 2 ------- null}
- -t 1.028352 -s 2 -d 3 -p tcp -e 1040 -c 1 -i 14 -a 1 -x {0.0 4.0 5 ------- null}
h -t 1.028352 -s 2 -d 3 -p tcp -e 1040 -c 1 -i 14 -a 1 -x {0.0 4.0 -1 ------- null}
r -t 1.030992 -s 6 -d 5 -p ack -e 40 -c 2 -i 10 -a 2 -x {1.0 5.0 1 ------- null}
h -t 1.030992 -s 5 -d 6 -p tcp -e 1040 -c 2 -i 16 -a 2 -x {5.0 1.0 3 ------- null}
h -t 1.030992 -s 5 -d 6 -p tcp -e 1040 -c 2 -i 17 -a 2 -x {5.0 1.0 4 ------- null}
+ -t 1.031564 -s 3 -d 6 -p ack -e 40 -c 2 -i 11 -a 2 -x {1.0 5.0 2 ------- null}
- -t 1.031564 -s 3 -d 6 -p ack -e 40 -c 2 -i 11 -a 2 -x {1.0 5.0 2 ------- null}
h -t 1.031564 -s 3 -d 6 -p ack -e 40 -c 2 -i 11 -a 2 -x {1.0 5.0 -1 ------- null}
- -t 1.069952 -s 2 -d 3 -p tcp -e 1040 -c 1 -i 15 -a 1 -x {0.0 4.0 6 ------- null}
h -t 1.069952 -s 2 -d 3 -p tcp -e 1040 -c 1 -i 15 -a 1 -x {0.0 4.0 -1 ------- null}
+ -t 1.070992 -s 5 -d 6 -p tcp -e 1040 -c 2 -i 16 -a 2 -x {5.0 1.0 3 ------- null}
- -t 1.070992 -s 5 -d 6 -p tcp -e 1040 -c 2 -i 16 -a 2 -x {5.0 1.0 3 ------- null}
h -t 1.070992 -s 5 -d 6 -p tcp -e 1040 -c 2 -i 16 -a 2 -x {5.0 1.0 -1 ------- null}
+ -t 1.070992 -s 5 -d 6 -p tcp -e 1040 -c 2 -i 17 -a 2 -x {5.0 1.0 4 ------- null}
r -t 1.072592 -s 6 -d 5 -p ack -e 40 -c 2 -i 11 -a 2 -x {1.0 5.0 2 ------- null}
h -t 1.072592 -s 5 -d 6 -p tcp -e 1040 -c 2 -i 18 -a 2 -x {5.0 1.0 5 ------- null}
h -t 1.072592 -s 5 -d 6 -p tcp -e 1040 -c 2 -i 19 -a 2 -x {5.0 1.0 6 ------- null}
r -t 1.086752 -s 2 -d 3 -p tcp -e 1040 -c 1 -i 12 -a 1 -x {0.0 4.0 3 ------- null}
h -t 1.086752 -s 3 -d 6 -p tcp -e 1040 -c 1 -i 12 -a 1 -x {0.0 4.0 3 ------- null}
- -t 1.088048 -s 5 -d 6 -p tcp -e 1040 -c 2 -i 17 -a 2 -x {5.0 1.0 4 ------- null}
h -t 1.088048 -s 5 -d 6 -p tcp -e 1040 -c 2 -i 17 -a 2 -x {5.0 1.0 -1 ------- null}
+ -t 1.112592 -s 5 -d 6 -p tcp -e 1040 -c 2 -i 18 -a 2 -x {5.0 1.0 5 ------- null}
- -t 1.112592 -s 5 -d 6 -p tcp -e 1040 -c 2 -i 18 -a 2 -x {5.0 1.0 5 ------- null}
h -t 1.112592 -s 5 -d 6 -p tcp -e 1040 -c 2 -i 18 -a 2 -x {5.0 1.0 -1 ------- null}
+ -t 1.112592 -s 5 -d 6 -p tcp -e 1040 -c 2 -i 19 -a 2 -x {5.0 1.0 6 ------- null}
+ -t 1.126752 -s 3 -d 6 -p tcp -e 1040 -c 1 -i 12 -a 1 -x {0.0 4.0 3 ------- null}
- -t 1.126752 -s 3 -d 6 -p tcp -e 1040 -c 1 -i 12 -a 1 -x {0.0 4.0 3 ------- null}
h -t 1.126752 -s 3 -d 6 -p tcp -e 1040 -c 1 -i 12 -a 1 -x {0.0 4.0 -1 ------- null}
r -t 1.12786 -s 6 -d 3 -p tcp -e 1040 -c 2 -i 16 -a 2 -x {5.0 1.0 3 ------- null}
+ -t 1.12786 -s 3 -d 2 -p tcp -e 1040 -c 2 -i 16 -a 2 -x {5.0 1.0 3 ------- null}
- -t 1.12786 -s 3 -d 2 -p tcp -e 1040 -c 2 -i 16 -a 2 -x {5.0 1.0 3 ------- null}
h -t 1.12786 -s 3 -d 2 -p tcp -e 1040 -c 2 -i 16 -a 2 -x {5.0 1.0 -1 ------- null}
r -t 1.128352 -s 2 -d 3 -p tcp -e 1040 -c 1 -i 13 -a 1 -x {0.0 4.0 4 ------- null}
h -t 1.128352 -s 3 -d 6 -p tcp -e 1040 -c 1 -i 13 -a 1 -x {0.0 4.0 4 ------- null}
- -t 1.129648 -s 5 -d 6 -p tcp -e 1040 -c 2 -i 19 -a 2 -x {5.0 1.0 6 ------- null}
h -t 1.129648 -s 5 -d 6 -p tcp -e 1040 -c 2 -i 19 -a 2 -x {5.0 1.0 -1 ------- null}
r -t 1.144916 -s 6 -d 3 -p tcp -e 1040 -c 2 -i 17 -a 2 -x {5.0 1.0 4 ------- null}
+ -t 1.144916 -s 3 -d 2 -p tcp -e 1040 -c 2 -i 17 -a 2 -x {5.0 1.0 4 ------- null}
+ -t 1.168352 -s 3 -d 6 -p tcp -e 1040 -c 1 -i 13 -a 1 -x {0.0 4.0 4 ------- null}
- -t 1.168352 -s 3 -d 6 -p tcp -e 1040 -c 1 -i 13 -a 1 -x {0.0 4.0 4 ------- null}
h -t 1.168352 -s 3 -d 6 -p tcp -e 1040 -c 1 -i 13 -a 1 -x {0.0 4.0 -1 ------- null}
r -t 1.16946 -s 6 -d 3 -p tcp -e 1040 -c 2 -i 18 -a 2 -x {5.0 1.0 5 ------- null}
+ -t 1.16946 -s 3 -d 2 -p tcp -e 1040 -c 2 -i 18 -a 2 -x {5.0 1.0 5 ------- null}
- -t 1.16946 -s 3 -d 2 -p tcp -e 1040 -c 2 -i 17 -a 2 -x {5.0 1.0 4 ------- null}
h -t 1.16946 -s 3 -d 2 -p tcp -e 1040 -c 2 -i 17 -a 2 -x {5.0 1.0 -1 ------- null}
r -t 1.169952 -s 2 -d 3 -p tcp -e 1040 -c 1 -i 14 -a 1 -x {0.0 4.0 5 ------- null}
h -t 1.169952 -s 3 -d 6 -p tcp -e 1040 -c 1 -i 14 -a 1 -x {0.0 4.0 5 ------- null}
r -t 1.18678 -s 6 -d 3 -p tcp -e 1040 -c 2 -i 19 -a 2 -x {5.0 1.0 6 ------- null}
+ -t 1.18678 -s 3 -d 2 -p tcp -e 1040 -c 2 -i 19 -a 2 -x {5.0 1.0 6 ------- null}
r -t 1.20384 -s 6 -d 4 -p tcp -e 1040 -c 1 -i 12 -a 1 -x {0.0 4.0 3 ------- null}
h -t 1.20384 -s 4 -d 6 -p ack -e 40 -c 1 -i 20 -a 1 -x {4.0 0.0 3 ------- null}
+ -t 1.209952 -s 3 -d 6 -p tcp -e 1040 -c 1 -i 14 -a 1 -x {0.0 4.0 5 ------- null}
- -t 1.209952 -s 3 -d 6 -p tcp -e 1040 -c 1 -i 14 -a 1 -x {0.0 4.0 5 ------- null}
h -t 1.209952 -s 3 -d 6 -p tcp -e 1040 -c 1 -i 14 -a 1 -x {0.0 4.0 -1 ------- null}
- -t 1.21106 -s 3 -d 2 -p tcp -e 1040 -c 2 -i 18 -a 2 -x {5.0 1.0 5 ------- null}
h -t 1.21106 -s 3 -d 2 -p tcp -e 1040 -c 2 -i 18 -a 2 -x {5.0 1.0 -1 ------- null}
r -t 1.211552 -s 2 -d 3 -p tcp -e 1040 -c 1 -i 15 -a 1 -x {0.0 4.0 6 ------- null}
h -t 1.211552 -s 3 -d 6 -p tcp -e 1040 -c 1 -i 15 -a 1 -x {0.0 4.0 6 ------- null}
r -t 1.22522 -s 6 -d 4 -p tcp -e 1040 -c 1 -i 13 -a 1 -x {0.0 4.0 4 ------- null}
h -t 1.22522 -s 4 -d 6 -p ack -e 40 -c 1 -i 21 -a 1 -x {4.0 0.0 4 ------- null}
+ -t 1.24384 -s 4 -d 6 -p ack -e 40 -c 1 -i 20 -a 1 -x {4.0 0.0 3 ------- null}
- -t 1.24384 -s 4 -d 6 -p ack -e 40 -c 1 -i 20 -a 1 -x {4.0 0.0 3 ------- null}
h -t 1.24384 -s 4 -d 6 -p ack -e 40 -c 1 -i 20 -a 1 -x {4.0 0.0 -1 ------- null}
+ -t 1.251552 -s 3 -d 6 -p tcp -e 1040 -c 1 -i 15 -a 1 -x {0.0 4.0 6 ------- null}
- -t 1.251552 -s 3 -d 6 -p tcp -e 1040 -c 1 -i 15 -a 1 -x {0.0 4.0 6 ------- null}
h -t 1.251552 -s 3 -d 6 -p tcp -e 1040 -c 1 -i 15 -a 1 -x {0.0 4.0 -1 ------- null}
- -t 1.25266 -s 3 -d 2 -p tcp -e 1040 -c 2 -i 19 -a 2 -x {5.0 1.0 6 ------- null}
h -t 1.25266 -s 3 -d 2 -p tcp -e 1040 -c 2 -i 19 -a 2 -x {5.0 1.0 -1 ------- null}
+ -t 1.26522 -s 4 -d 6 -p ack -e 40 -c 1 -i 21 -a 1 -x {4.0 0.0 4 ------- null}
- -t 1.26522 -s 4 -d 6 -p ack -e 40 -c 1 -i 21 -a 1 -x {4.0 0.0 4 ------- null}
h -t 1.26522 -s 4 -d 6 -p ack -e 40 -c 1 -i 21 -a 1 -x {4.0 0.0 -1 ------- null}
r -t 1.26682 -s 6 -d 4 -p tcp -e 1040 -c 1 -i 14 -a 1 -x {0.0 4.0 5 ------- null}
h -t 1.26682 -s 4 -d 6 -p ack -e 40 -c 1 -i 22 -a 1 -x {4.0 0.0 5 ------- null}
r -t 1.26946 -s 3 -d 2 -p tcp -e 1040 -c 2 -i 16 -a 2 -x {5.0 1.0 3 ------- null}
+ -t 1.26946 -s 2 -d 1 -p tcp -e 1040 -c 2 -i 16 -a 2 -x {5.0 1.0 3 ------- null}
- -t 1.26946 -s 2 -d 1 -p tcp -e 1040 -c 2 -i 16 -a 2 -x {5.0 1.0 3 ------- null}
h -t 1.26946 -s 2 -d 1 -p tcp -e 1040 -c 2 -i 16 -a 2 -x {5.0 1.0 -1 ------- null}
r -t 1.28362 -s 2 -d 1 -p tcp -e 1040 -c 2 -i 16 -a 2 -x {5.0 1.0 3 ------- null}
+ -t 1.28362 -s 1 -d 2 -p ack -e 40 -c 2 -i 23 -a 2 -x {1.0 5.0 3 ------- null}
- -t 1.28362 -s 1 -d 2 -p ack -e 40 -c 2 -i 23 -a 2 -x {1.0 5.0 3 ------- null}
h -t 1.28362 -s 1 -d 2 -p ack -e 40 -c 2 -i 23 -a 2 -x {1.0 5.0 -1 ------- null}
r -t 1.284868 -s 6 -d 3 -p ack -e 40 -c 1 -i 20 -a 1 -x {4.0 0.0 3 ------- null}
+ -t 1.284868 -s 3 -d 2 -p ack -e 40 -c 1 -i 20 -a 1 -x {4.0 0.0 3 ------- null}
r -t 1.29378 -s 1 -d 2 -p ack -e 40 -c 2 -i 23 -a 2 -x {1.0 5.0 3 ------- null}
+ -t 1.29378 -s 2 -d 3 -p ack -e 40 -c 2 -i 23 -a 2 -x {1.0 5.0 3 ------- null}
- -t 1.29378 -s 2 -d 3 -p ack -e 40 -c 2 -i 23 -a 2 -x {1.0 5.0 3 ------- null}
h -t 1.29378 -s 2 -d 3 -p ack -e 40 -c 2 -i 23 -a 2 -x {1.0 5.0 -1 ------- null}
- -t 1.29426 -s 3 -d 2 -p ack -e 40 -c 1 -i 20 -a 1 -x {4.0 0.0 3 ------- null}
h -t 1.29426 -s 3 -d 2 -p ack -e 40 -c 1 -i 20 -a 1 -x {4.0 0.0 -1 ------- null}
+ -t 1.30682 -s 4 -d 6 -p ack -e 40 -c 1 -i 22 -a 1 -x {4.0 0.0 5 ------- null}
- -t 1.30682 -s 4 -d 6 -p ack -e 40 -c 1 -i 22 -a 1 -x {4.0 0.0 5 ------- null}
h -t 1.30682 -s 4 -d 6 -p ack -e 40 -c 1 -i 22 -a 1 -x {4.0 0.0 -1 ------- null}
r -t 1.30842 -s 6 -d 4 -p tcp -e 1040 -c 1 -i 15 -a 1 -x {0.0 4.0 6 ------- null}
h -t 1.30842 -s 4 -d 6 -p ack -e 40 -c 1 -i 24 -a 1 -x {4.0 0.0 6 ------- null}
r -t 1.30964 -s 6 -d 3 -p ack -e 40 -c 1 -i 21 -a 1 -x {4.0 0.0 4 ------- null}
+ -t 1.30964 -s 3 -d 2 -p ack -e 40 -c 1 -i 21 -a 1 -x {4.0 0.0 4 ------- null}
- -t 1.30964 -s 3 -d 2 -p ack -e 40 -c 1 -i 21 -a 1 -x {4.0 0.0 4 ------- null}
h -t 1.30964 -s 3 -d 2 -p ack -e 40 -c 1 -i 21 -a 1 -x {4.0 0.0 -1 ------- null}
r -t 1.31106 -s 3 -d 2 -p tcp -e 1040 -c 2 -i 17 -a 2 -x {5.0 1.0 4 ------- null}
+ -t 1.31106 -s 2 -d 1 -p tcp -e 1040 -c 2 -i 17 -a 2 -x {5.0 1.0 4 ------- null}
- -t 1.31106 -s 2 -d 1 -p tcp -e 1040 -c 2 -i 17 -a 2 -x {5.0 1.0 4 ------- null}
h -t 1.31106 -s 2 -d 1 -p tcp -e 1040 -c 2 -i 17 -a 2 -x {5.0 1.0 -1 ------- null}
r -t 1.32522 -s 2 -d 1 -p tcp -e 1040 -c 2 -i 17 -a 2 -x {5.0 1.0 4 ------- null}
+ -t 1.32522 -s 1 -d 2 -p ack -e 40 -c 2 -i 25 -a 2 -x {1.0 5.0 4 ------- null}
- -t 1.32522 -s 1 -d 2 -p ack -e 40 -c 2 -i 25 -a 2 -x {1.0 5.0 4 ------- null}
h -t 1.32522 -s 1 -d 2 -p ack -e 40 -c 2 -i 25 -a 2 -x {1.0 5.0 -1 ------- null}
r -t 1.33538 -s 1 -d 2 -p ack -e 40 -c 2 -i 25 -a 2 -x {1.0 5.0 4 ------- null}
+ -t 1.33538 -s 2 -d 3 -p ack -e 40 -c 2 -i 25 -a 2 -x {1.0 5.0 4 ------- null}
- -t 1.33538 -s 2 -d 3 -p ack -e 40 -c 2 -i 25 -a 2 -x {1.0 5.0 4 ------- null}
h -t 1.33538 -s 2 -d 3 -p ack -e 40 -c 2 -i 25 -a 2 -x {1.0 5.0 -1 ------- null}
r -t 1.347848 -s 6 -d 3 -p ack -e 40 -c 1 -i 22 -a 1 -x {4.0 0.0 5 ------- null}
+ -t 1.347848 -s 3 -d 2 -p ack -e 40 -c 1 -i 22 -a 1 -x {4.0 0.0 5 ------- null}
- -t 1.347848 -s 3 -d 2 -p ack -e 40 -c 1 -i 22 -a 1 -x {4.0 0.0 5 ------- null}
h -t 1.347848 -s 3 -d 2 -p ack -e 40 -c 1 -i 22 -a 1 -x {4.0 0.0 -1 ------- null}
+ -t 1.34842 -s 4 -d 6 -p ack -e 40 -c 1 -i 24 -a 1 -x {4.0 0.0 6 ------- null}
- -t 1.34842 -s 4 -d 6 -p ack -e 40 -c 1 -i 24 -a 1 -x {4.0 0.0 6 ------- null}
h -t 1.34842 -s 4 -d 6 -p ack -e 40 -c 1 -i 24 -a 1 -x {4.0 0.0 -1 ------- null}
r -t 1.35266 -s 3 -d 2 -p tcp -e 1040 -c 2 -i 18 -a 2 -x {5.0 1.0 5 ------- null}
+ -t 1.35266 -s 2 -d 1 -p tcp -e 1040 -c 2 -i 18 -a 2 -x {5.0 1.0 5 ------- null}
- -t 1.35266 -s 2 -d 1 -p tcp -e 1040 -c 2 -i 18 -a 2 -x {5.0 1.0 5 ------- null}
h -t 1.35266 -s 2 -d 1 -p tcp -e 1040 -c 2 -i 18 -a 2 -x {5.0 1.0 -1 ------- null}
r -t 1.36682 -s 2 -d 1 -p tcp -e 1040 -c 2 -i 18 -a 2 -x {5.0 1.0 5 ------- null}
+ -t 1.36682 -s 1 -d 2 -p ack -e 40 -c 2 -i 26 -a 2 -x {1.0 5.0 5 ------- null}
- -t 1.36682 -s 1 -d 2 -p ack -e 40 -c 2 -i 26 -a 2 -x {1.0 5.0 5 ------- null}
h -t 1.36682 -s 1 -d 2 -p ack -e 40 -c 2 -i 26 -a 2 -x {1.0 5.0 -1 ------- null}
r -t 1.37698 -s 1 -d 2 -p ack -e 40 -c 2 -i 26 -a 2 -x {1.0 5.0 5 ------- null}
+ -t 1.37698 -s 2 -d 3 -p ack -e 40 -c 2 -i 26 -a 2 -x {1.0 5.0 5 ------- null}
- -t 1.37698 -s 2 -d 3 -p ack -e 40 -c 2 -i 26 -a 2 -x {1.0 5.0 5 ------- null}
h -t 1.37698 -s 2 -d 3 -p ack -e 40 -c 2 -i 26 -a 2 -x {1.0 5.0 -1 ------- null}
r -t 1.389448 -s 6 -d 3 -p ack -e 40 -c 1 -i 24 -a 1 -x {4.0 0.0 6 ------- null}
+ -t 1.389448 -s 3 -d 2 -p ack -e 40 -c 1 -i 24 -a 1 -x {4.0 0.0 6 ------- null}
- -t 1.389448 -s 3 -d 2 -p ack -e 40 -c 1 -i 24 -a 1 -x {4.0 0.0 6 ------- null}
h -t 1.389448 -s 3 -d 2 -p ack -e 40 -c 1 -i 24 -a 1 -x {4.0 0.0 -1 ------- null}
r -t 1.39426 -s 3 -d 2 -p tcp -e 1040 -c 2 -i 19 -a 2 -x {5.0 1.0 6 ------- null}
+ -t 1.39426 -s 2 -d 1 -p tcp -e 1040 -c 2 -i 19 -a 2 -x {5.0 1.0 6 ------- null}
- -t 1.39426 -s 2 -d 1 -p tcp -e 1040 -c 2 -i 19 -a 2 -x {5.0 1.0 6 ------- null}
h -t 1.39426 -s 2 -d 1 -p tcp -e 1040 -c 2 -i 19 -a 2 -x {5.0 1.0 -1 ------- null}
r -t 1.39538 -s 2 -d 3 -p ack -e 40 -c 2 -i 23 -a 2 -x {1.0 5.0 3 ------- null}
h -t 1.39538 -s 3 -d 6 -p ack -e 40 -c 2 -i 23 -a 2 -x {1.0 5.0 3 ------- null}
r -t 1.39586 -s 3 -d 2 -p ack -e 40 -c 1 -i 20 -a 1 -x {4.0 0.0 3 ------- null}
+ -t 1.39586 -s 2 -d 0 -p ack -e 40 -c 1 -i 20 -a 1 -x {4.0 0.0 3 ------- null}
- -t 1.39586 -s 2 -d 0 -p ack -e 40 -c 1 -i 20 -a 1 -x {4.0 0.0 3 ------- null}
h -t 1.39586 -s 2 -d 0 -p ack -e 40 -c 1 -i 20 -a 1 -x {4.0 0.0 -1 ------- null}
r -t 1.40602 -s 2 -d 0 -p ack -e 40 -c 1 -i 20 -a 1 -x {4.0 0.0 3 ------- null}
+ -t 1.40602 -s 0 -d 2 -p tcp -e 1040 -c 1 -i 27 -a 1 -x {0.0 4.0 7 ------- null}
- -t 1.40602 -s 0 -d 2 -p tcp -e 1040 -c 1 -i 27 -a 1 -x {0.0 4.0 7 ------- null}
h -t 1.40602 -s 0 -d 2 -p tcp -e 1040 -c 1 -i 27 -a 1 -x {0.0 4.0 -1 ------- null}
+ -t 1.40602 -s 0 -d 2 -p tcp -e 1040 -c 1 -i 28 -a 1 -x {0.0 4.0 8 ------- null}
r -t 1.40842 -s 2 -d 1 -p tcp -e 1040 -c 2 -i 19 -a 2 -x {5.0 1.0 6 ------- null}
+ -t 1.40842 -s 1 -d 2 -p ack -e 40 -c 2 -i 29 -a 2 -x {1.0 5.0 6 ------- null}
- -t 1.40842 -s 1 -d 2 -p ack -e 40 -c 2 -i 29 -a 2 -x {1.0 5.0 6 ------- null}
h -t 1.40842 -s 1 -d 2 -p ack -e 40 -c 2 -i 29 -a 2 -x {1.0 5.0 -1 ------- null}
- -t 1.41018 -s 0 -d 2 -p tcp -e 1040 -c 1 -i 28 -a 1 -x {0.0 4.0 8 ------- null}
h -t 1.41018 -s 0 -d 2 -p tcp -e 1040 -c 1 -i 28 -a 1 -x {0.0 4.0 -1 ------- null}
r -t 1.41124 -s 3 -d 2 -p ack -e 40 -c 1 -i 21 -a 1 -x {4.0 0.0 4 ------- null}
+ -t 1.41124 -s 2 -d 0 -p ack -e 40 -c 1 -i 21 -a 1 -x {4.0 0.0 4 ------- null}
- -t 1.41124 -s 2 -d 0 -p ack -e 40 -c 1 -i 21 -a 1 -x {4.0 0.0 4 ------- null}
h -t 1.41124 -s 2 -d 0 -p ack -e 40 -c 1 -i 21 -a 1 -x {4.0 0.0 -1 ------- null}
r -t 1.41858 -s 1 -d 2 -p ack -e 40 -c 2 -i 29 -a 2 -x {1.0 5.0 6 ------- null}
+ -t 1.41858 -s 2 -d 3 -p ack -e 40 -c 2 -i 29 -a 2 -x {1.0 5.0 6 ------- null}
- -t 1.41858 -s 2 -d 3 -p ack -e 40 -c 2 -i 29 -a 2 -x {1.0 5.0 6 ------- null}
h -t 1.41858 -s 2 -d 3 -p ack -e 40 -c 2 -i 29 -a 2 -x {1.0 5.0 -1 ------- null}
r -t 1.42018 -s 0 -d 2 -p tcp -e 1040 -c 1 -i 27 -a 1 -x {0.0 4.0 7 ------- null}
+ -t 1.42018 -s 2 -d 3 -p tcp -e 1040 -c 1 -i 27 -a 1 -x {0.0 4.0 7 ------- null}
- -t 1.42018 -s 2 -d 3 -p tcp -e 1040 -c 1 -i 27 -a 1 -x {0.0 4.0 7 ------- null}
h -t 1.42018 -s 2 -d 3 -p tcp -e 1040 -c 1 -i 27 -a 1 -x {0.0 4.0 -1 ------- null}
r -t 1.4214 -s 2 -d 0 -p ack -e 40 -c 1 -i 21 -a 1 -x {4.0 0.0 4 ------- null}
+ -t 1.4214 -s 0 -d 2 -p tcp -e 1040 -c 1 -i 30 -a 1 -x {0.0 4.0 9 ------- null}
- -t 1.4214 -s 0 -d 2 -p tcp -e 1040 -c 1 -i 30 -a 1 -x {0.0 4.0 9 ------- null}
h -t 1.4214 -s 0 -d 2 -p tcp -e 1040 -c 1 -i 30 -a 1 -x {0.0 4.0 -1 ------- null}
+ -t 1.4214 -s 0 -d 2 -p tcp -e 1040 -c 1 -i 31 -a 1 -x {0.0 4.0 10 ------- null}
r -t 1.42434 -s 0 -d 2 -p tcp -e 1040 -c 1 -i 28 -a 1 -x {0.0 4.0 8 ------- null}
+ -t 1.42434 -s 2 -d 3 -p tcp -e 1040 -c 1 -i 28 -a 1 -x {0.0 4.0 8 ------- null}
- -t 1.42556 -s 0 -d 2 -p tcp -e 1040 -c 1 -i 31 -a 1 -x {0.0 4.0 10 ------- null}
h -t 1.42556 -s 0 -d 2 -p tcp -e 1040 -c 1 -i 31 -a 1 -x {0.0 4.0 -1 ------- null}
+ -t 1.43538 -s 3 -d 6 -p ack -e 40 -c 2 -i 23 -a 2 -x {1.0 5.0 3 ------- null}
- -t 1.43538 -s 3 -d 6 -p ack -e 40 -c 2 -i 23 -a 2 -x {1.0 5.0 3 ------- null}
h -t 1.43538 -s 3 -d 6 -p ack -e 40 -c 2 -i 23 -a 2 -x {1.0 5.0 -1 ------- null}
r -t 1.43556 -s 0 -d 2 -p tcp -e 1040 -c 1 -i 30 -a 1 -x {0.0 4.0 9 ------- null}
+ -t 1.43556 -s 2 -d 3 -p tcp -e 1040 -c 1 -i 30 -a 1 -x {0.0 4.0 9 ------- null}
r -t 1.43698 -s 2 -d 3 -p ack -e 40 -c 2 -i 25 -a 2 -x {1.0 5.0 4 ------- null}
h -t 1.43698 -s 3 -d 6 -p ack -e 40 -c 2 -i 25 -a 2 -x {1.0 5.0 4 ------- null}