+ 0.1 0 2 tcp 40 ------- 1 0.0 4.0 0 0
- 0.1 0 2 tcp 40 ------- 1 0.0 4.0 0 0
r 0.11016 0 2 tcp 40 ------- 1 0.0 4.0 0 0
+ 0.11016 2 3 tcp 40 ------- 1 0.0 4.0 0 0
- 0.11016 2 3 tcp 40 ------- 1 0.0 4.0 0 0
h 0.2 5 6 tcp 40 ------- 2 5.0 1.0 0 1
r 0.21176 2 3 tcp 40 ------- 1 0.0 4.0 0 0
h 0.21176 3 6 tcp 40 ------- 1 0.0 4.0 0 0
+ 0.24 5 6 tcp 40 ------- 2 5.0 1.0 0 1
- 0.24 5 6 tcp 40 ------- 2 5.0 1.0 0 1
+ 0.25176 3 6 tcp 40 ------- 1 0.0 4.0 0 0
- 0.25176 3 6 tcp 40 ------- 1 0.0 4.0 0 0
r 0.281028 6 3 tcp 40 ------- 2 5.0 1.0 0 1
+ 0.281028 3 2 tcp 40 ------- 2 5.0 1.0 0 1
- 0.281028 3 2 tcp 40 ------- 2 5.0 1.0 0 1
r 0.292788 6 4 tcp 40 ------- 1 0.0 4.0 0 0
h 0.292788 4 6 ack 40 ------- 1 4.0 0.0 0 2
+ 0.332788 4 6 ack 40 ------- 1 4.0 0.0 0 2
- 0.332788 4 6 ack 40 ------- 1 4.0 0.0 0 2
r 0.373816 6 3 ack 40 ------- 1 4.0 0.0 0 2
+ 0.373816 3 2 ack 40 ------- 1 4.0 0.0 0 2
- 0.373816 3 2 ack 40 ------- 1 4.0 0.0 0 2
r 0.382628 3 2 tcp 40 ------- 2 5.0 1.0 0 1
+ 0.382628 2 1 tcp 40 ------- 2 5.0 1.0 0 1
- 0.382628 2 1 tcp 40 ------- 2 5.0 1.0 0 1
r 0.392788 2 1 tcp 40 ------- 2 5.0 1.0 0 1
+ 0.392788 1 2 ack 40 ------- 2 1.0 5.0 0 3
- 0.392788 1 2 ack 40 ------- 2 1.0 5.0 0 3
r 0.402948 1 2 ack 40 ------- 2 1.0 5.0 0 3
+ 0.402948 2 3 ack 40 ------- 2 1.0 5.0 0 3
- 0.402948 2 3 ack 40 ------- 2 1.0 5.0 0 3
r 0.475416 3 2 ack 40 ------- 1 4.0 0.0 0 2
+ 0.475416 2 0 ack 40 ------- 1 4.0 0.0 0 2
- 0.475416 2 0 ack 40 ------- 1 4.0 0.0 0 2
r 0.485576 2 0 ack 40 ------- 1 4.0 0.0 0 2
+ 0.485576 0 2 tcp 1040 ------- 1 0.0 4.0 1 4
- 0.485576 0 2 tcp 1040 ------- 1 0.0 4.0 1 4
+ 0.485576 0 2 tcp 1040 ------- 1 0.0 4.0 2 5
- 0.489736 0 2 tcp 1040 ------- 1 0.0 4.0 2 5
r 0.499736 0 2 tcp 1040 ------- 1 0.0 4.0 1 4
+ 0.499736 2 3 tcp 1040 ------- 1 0.0 4.0 1 4
- 0.499736 2 3 tcp 1040 ------- 1 0.0 4.0 1 4
r 0.503896 0 2 tcp 1040 ------- 1 0.0 4.0 2 5
+ 0.503896 2 3 tcp 1040 ------- 1 0.0 4.0 2 5
r 0.504548 2 3 ack 40 ------- 2 1.0 5.0 0 3
h 0.504548 3 6 ack 40 ------- 2 1.0 5.0 0 3
- 0.541336 2 3 tcp 1040 ------- 1 0.0 4.0 2 5
+ 0.544548 3 6 ack 40 ------- 2 1.0 5.0 0 3
- 0.544548 3 6 ack 40 ------- 2 1.0 5.0 0 3
r 0.585576 6 5 ack 40 ------- 2 1.0 5.0 0 3
h 0.585576 5 6 tcp 1040 ------- 2 5.0 1.0 1 6
h 0.585576 5 6 tcp 1040 ------- 2 5.0 1.0 2 7
+ 0.625576 5 6 tcp 1040 ------- 2 5.0 1.0 1 6
- 0.625576 5 6 tcp 1040 ------- 2 5.0 1.0 1 6
+ 0.625576 5 6 tcp 1040 ------- 2 5.0 1.0 2 7
r 0.641336 2 3 tcp 1040 ------- 1 0.0 4.0 1 4
h 0.641336 3 6 tcp 1040 ------- 1 0.0 4.0 1 4
- 0.642632 5 6 tcp 1040 ------- 2 5.0 1.0 2 7
+ 0.681336 3 6 tcp 1040 ------- 1 0.0 4.0 1 4
- 0.681336 3 6 tcp 1040 ------- 1 0.0 4.0 1 4
r 0.682444 6 3 tcp 1040 ------- 2 5.0 1.0 1 6
+ 0.682444 3 2 tcp 1040 ------- 2 5.0 1.0 1 6
- 0.682444 3 2 tcp 1040 ------- 2 5.0 1.0 1 6
r 0.682936 2 3 tcp 1040 ------- 1 0.0 4.0 2 5
h 0.682936 3 6 tcp 1040 ------- 1 0.0 4.0 2 5
r 0.6995 6 3 tcp 1040 ------- 2 5.0 1.0 2 7
+ 0.6995 3 2 tcp 1040 ------- 2 5.0 1.0 2 7
+ 0.722936 3 6 tcp 1040 ------- 1 0.0 4.0 2 5
- 0.722936 3 6 tcp 1040 ------- 1 0.0 4.0 2 5
- 0.724044 3 2 tcp 1040 ------- 2 5.0 1.0 2 7
r 0.738204 6 4 tcp 1040 ------- 1 0.0 4.0 1 4
h 0.738204 4 6 ack 40 ------- 1 4.0 0.0 1 8
+ 0.778204 4 6 ack 40 ------- 1 4.0 0.0 1 8
- 0.778204 4 6 ack 40 ------- 1 4.0 0.0 1 8
r 0.779804 6 4 tcp 1040 ------- 1 0.0 4.0 2 5
h 0.779804 4 6 ack 40 ------- 1 4.0 0.0 2 9
r 0.819232 6 3 ack 40 ------- 1 4.0 0.0 1 8
+ 0.819232 3 2 ack 40 ------- 1 4.0 0.0 1 8
- 0.819232 3 2 ack 40 ------- 1 4.0 0.0 1 8
+ 0.819804 4 6 ack 40 ------- 1 4.0 0.0 2 9
- 0.819804 4 6 ack 40 ------- 1 4.0 0.0 2 9
r 0.824044 3 2 tcp 1040 ------- 2 5.0 1.0 1 6
+ 0.824044 2 1 tcp 1040 ------- 2 5.0 1.0 1 6
- 0.824044 2 1 tcp 1040 ------- 2 5.0 1.0 1 6
r 0.838204 2 1 tcp 1040 ------- 2 5.0 1.0 1 6
+ 0.838204 1 2 ack 40 ------- 2 1.0 5.0 1 10
- 0.838204 1 2 ack 40 ------- 2 1.0 5.0 1 10
r 0.848364 1 2 ack 40 ------- 2 1.0 5.0 1 10
+ 0.848364 2 3 ack 40 ------- 2 1.0 5.0 1 10
- 0.848364 2 3 ack 40 ------- 2 1.0 5.0 1 10
r 0.860832 6 3 ack 40 ------- 1 4.0 0.0 2 9
+ 0.860832 3 2 ack 40 ------- 1 4.0 0.0 2 9
- 0.860832 3 2 ack 40 ------- 1 4.0 0.0 2 9
r 0.865644 3 2 tcp 1040 ------- 2 5.0 1.0 2 7
+ 0.865644 2 1 tcp 1040 ------- 2 5.0 1.0 2 7
- 0.865644 2 1 tcp 1040 ------- 2 5.0 1.0 2 7
r 0.879804 2 1 tcp 1040 ------- 2 5.0 1.0 2 7
+ 0.879804 1 2 ack 40 ------- 2 1.0 5.0 2 11
- 0.879804 1 2 ack 40 ------- 2 1.0 5.0 2 11
r 0.889964 1 2 ack 40 ------- 2 1.0 5.0 2 11
+ 0.889964 2 3 ack 40 ------- 2 1.0 5.0 2 11
- 0.889964 2 3 ack 40 ------- 2 1.0 5.0 2 11
r 0.920832 3 2 ack 40 ------- 1 4.0 0.0 1 8
+ 0.920832 2 0 ack 40 ------- 1 4.0 0.0 1 8
- 0.920832 2 0 ack 40 ------- 1 4.0 0.0 1 8
r 0.930992 2 0 ack 40 ------- 1 4.0 0.0 1 8
+ 0.930992 0 2 tcp 1040 ------- 1 0.0 4.0 3 12
- 0.930992 0 2 tcp 1040 ------- 1 0.0 4.0 3 12
+ 0.930992 0 2 tcp 1040 ------- 1 0.0 4.0 4 13
- 0.935152 0 2 tcp 1040 ------- 1 0.0 4.0 4 13
r 0.945152 0 2 tcp 1040 ------- 1 0.0 4.0 3 12
+ 0.945152 2 3 tcp 1040 ------- 1 0.0 4.0 3 12
- 0.945152 2 3 tcp 1040 ------- 1 0.0 4.0 3 12
r 0.949312 0 2 tcp 1040 ------- 1 0.0 4.0 4 13
+ 0.949312 2 3 tcp 1040 ------- 1 0.0 4.0 4 13
r 0.949964 2 3 ack 40 ------- 2 1.0 5.0 1 10
h 0.949964 3 6 ack 40 ------- 2 1.0 5.0 1 10
r 0.962432 3 2 ack 40 ------- 1 4.0 0.0 2 9
+ 0.962432 2 0 ack 40 ------- 1 4.0 0.0 2 9
- 0.962432 2 0 ack 40 ------- 1 4.0 0.0 2 9
r 0.972592 2 0 ack 40 ------- 1 4.0 0.0 2 9
+ 0.972592 0 2 tcp 1040 ------- 1 0.0 4.0 5 14
- 0.972592 0 2 tcp 1040 ------- 1 0.0 4.0 5 14
+ 0.972592 0 2 tcp 1040 ------- 1 0.0 4.0 6 15
- 0.976752 0 2 tcp 1040 ------- 1 0.0 4.0 6 15
- 0.986752 2 3 tcp 1040 ------- 1 0.0 4.0 4 13
r 0.986752 0 2 tcp 1040 ------- 1 0.0 4.0 5 14
+ 0.986752 2 3 tcp 1040 ------- 1 0.0 4.0 5 14
+ 0.989964 3 6 ack 40 ------- 2 1.0 5.0 1 10
- 0.989964 3 6 ack 40 ------- 2 1.0 5.0 1 10
r 0.990912 0 2 tcp 1040 ------- 1 0.0 4.0 6 15
+ 0.990912 2 3 tcp 1040 ------- 1 0.0 4.0 6 15
r 0.991564 2 3 ack 40 ------- 2 1.0 5.0 2 11
h 0.991564 3 6 ack 40 ------- 2 1.0 5.0 2 11
- 1.028352 2 3 tcp 1040 ------- 1 0.0 4.0 5 14
r 1.030992 6 5 ack 40 ------- 2 1.0 5.0 1 10
h 1.030992 5 6 tcp 1040 ------- 2 5.0 1.0 3 16
h 1.030992 5 6 tcp 1040 ------- 2 5.0 1.0 4 17
+ 1.031564 3 6 ack 40 ------- 2 1.0 5.0 2 11
- 1.031564 3 6 ack 40 ------- 2 1.0 5.0 2 11
- 1.069952 2 3 tcp 1040 ------- 1 0.0 4.0 6 15
+ 1.070992 5 6 tcp 1040 ------- 2 5.0 1.0 3 16
- 1.070992 5 6 tcp 1040 ------- 2 5.0 1.0 3 16
+ 1.070992 5 6 tcp 1040 ------- 2 5.0 1.0 4 17
r 1.072592 6 5 ack 40 ------- 2 1.0 5.0 2 11
h 1.072592 5 6 tcp 1040 ------- 2 5.0 1.0 5 18
h 1.072592 5 6 tcp 1040 ------- 2 5.0 1.0 6 19
r 1.086752 2 3 tcp 1040 ------- 1 0.0 4.0 3 12
h 1.086752 3 6 tcp 1040 ------- 1 0.0 4.0 3 12
- 1.088048 5 6 tcp 1040 ------- 2 5.0 1.0 4 17
+ 1.112592 5 6 tcp 1040 ------- 2 5.0 1.0 5 18
- 1.112592 5 6 tcp 1040 ------- 2 5.0 1.0 5 18
+ 1.112592 5 6 tcp 1040 ------- 2 5.0 1.0 6 19
+ 1.126752 3 6 tcp 1040 ------- 1 0.0 4.0 3 12
- 1.126752 3 6 tcp 1040 ------- 1 0.0 4.0 3 12
r 1.12786 6 3 tcp 1040 ------- 2 5.0 1.0 3 16
+ 1.12786 3 2 tcp 1040 ------- 2 5.0 1.0 3 16
- 1.12786 3 2 tcp 1040 ------- 2 5.0 1.0 3 16
r 1.128352 2 3 tcp 1040 ------- 1 0.0 4.0 4 13
h 1.128352 3 6 tcp 1040 ------- 1 0.0 4.0 4 13
- 1.129648 5 6 tcp 1040 ------- 2 5.0 1.0 6 19
c 1.129652 3 6 tcp 1054 ------- 2 5.0 1.0 6 19
c 1.129656 5 6 tcp 1054 ------- 1 0.0 4.0 3 12
r 1.144916 6 3 tcp 1040 ------- 2 5.0 1.0 4 17
+ 1.144916 3 2 tcp 1040 ------- 2 5.0 1.0 4 17
+ 1.168352 3 6 tcp 1040 ------- 1 0.0 4.0 4 13
- 1.168352 3 6 tcp 1040 ------- 1 0.0 4.0 4 13
r 1.16946 6 3 tcp 1040 ------- 2 5.0 1.0 5 18
+ 1.16946 3 2 tcp 1040 ------- 2 5.0 1.0 5 18
- 1.16946 3 2 tcp 1040 ------- 2 5.0 1.0 4 17
r 1.169952 2 3 tcp 1040 ------- 1 0.0 4.0 5 14
h 1.169952 3 6 tcp 1040 ------- 1 0.0 4.0 5 14
r 1.18678 6 3 tcp 1040 ------- 2 5.0 1.0 6 19
+ 1.18678 3 2 tcp 1040 ------- 2 5.0 1.0 6 19
r 1.20384 6 4 tcp 1040 ------- 1 0.0 4.0 3 12
h 1.20384 4 6 ack 40 ------- 1 4.0 0.0 3 20
+ 1.209952 3 6 tcp 1040 ------- 1 0.0 4.0 5 14
- 1.209952 3 6 tcp 1040 ------- 1 0.0 4.0 5 14
- 1.21106 3 2 tcp 1040 ------- 2 5.0 1.0 5 18
r 1.211552 2 3 tcp 1040 ------- 1 0.0 4.0 6 15
h 1.211552 3 6 tcp 1040 ------- 1 0.0 4.0 6 15
r 1.22522 6 4 tcp 1040 ------- 1 0.0 4.0 4 13
h 1.22522 4 6 ack 40 ------- 1 4.0 0.0 4 21
+ 1.24384 4 6 ack 40 ------- 1 4.0 0.0 3 20
- 1.24384 4 6 ack 40 ------- 1 4.0 0.0 3 20
+ 1.251552 3 6 tcp 1040 ------- 1 0.0 4.0 6 15
- 1.251552 3 6 tcp 1040 ------- 1 0.0 4.0 6 15
- 1.25266 3 2 tcp 1040 ------- 2 5.0 1.0 6 19
+ 1.26522 4 6 ack 40 ------- 1 4.0 0.0 4 21
- 1.26522 4 6 ack 40 ------- 1 4.0 0.0 4 21
r 1.26682 6 4 tcp 1040 ------- 1 0.0 4.0 5 14
h 1.26682 4 6 ack 40 ------- 1 4.0 0.0 5 22
r 1.26946 3 2 tcp 1040 ------- 2 5.0 1.0 3 16
+ 1.26946 2 1 tcp 1040 ------- 2 5.0 1.0 3 16
- 1.26946 2 1 tcp 1040 ------- 2 5.0 1.0 3 16
r 1.28362 2 1 tcp 1040 ------- 2 5.0 1.0 3 16
+ 1.28362 1 2 ack 40 ------- 2 1.0 5.0 3 23
- 1.28362 1 2 ack 40 ------- 2 1.0 5.0 3 23
r 1.284868 6 3 ack 40 ------- 1 4.0 0.0 3 20
+ 1.284868 3 2 ack 40 ------- 1 4.0 0.0 3 20
r 1.29378 1 2 ack 40 ------- 2 1.0 5.0 3 23
+ 1.29378 2 3 ack 40 ------- 2 1.0 5.0 3 23
- 1.29378 2 3 ack 40 ------- 2 1.0 5.0 3 23
- 1.29426 3 2 ack 40 ------- 1 4.0 0.0 3 20
+ 1.30682 4 6 ack 40 ------- 1 4.0 0.0 5 22
- 1.30682 4 6 ack 40 ------- 1 4.0 0.0 5 22
r 1.30842 6 4 tcp 1040 ------- 1 0.0 4.0 6 15
h 1.30842 4 6 ack 40 ------- 1 4.0 0.0 6 24
r 1.30964 6 3 ack 40 ------- 1 4.0 0.0 4 21
+ 1.30964 3 2 ack 40 ------- 1 4.0 0.0 4 21
- 1.30964 3 2 ack 40 ------- 1 4.0 0.0 4 21
r 1.31106 3 2 tcp 1040 ------- 2 5.0 1.0 4 17
+ 1.31106 2 1 tcp 1040 ------- 2 5.0 1.0 4 17
- 1.31106 2 1 tcp 1040 ------- 2 5.0 1.0 4 17
r 1.32522 2 1 tcp 1040 ------- 2 5.0 1.0 4 17
+ 1.32522 1 2 ack 40 ------- 2 1.0 5.0 4 25
- 1.32522 1 2 ack 40 ------- 2 1.0 5.0 4 25
r 1.33538 1 2 ack 40 ------- 2 1.0 5.0 4 25
+ 1.33538 2 3 ack 40 ------- 2 1.0 5.0 4 25
- 1.33538 2 3 ack 40 ------- 2 1.0 5.0 4 25
r 1.347848 6 3 ack 40 ------- 1 4.0 0.0 5 22
+ 1.347848 3 2 ack 40 ------- 1 4.0 0.0 5 22
- 1.347848 3 2 ack 40 ------- 1 4.0 0.0 5 22
+ 1.34842 4 6 ack 40 ------- 1 4.0 0.0 6 24
- 1.34842 4 6 ack 40 ------- 1 4.0 0.0 6 24
r 1.35266 3 2 tcp 1040 ------- 2 5.0 1.0 5 18
+ 1.35266 2 1 tcp 1040 ------- 2 5.0 1.0 5 18
- 1.35266 2 1 tcp 1040 ------- 2 5.0 1.0 5 18
r 1.36682 2 1 tcp 1040 ------- 2 5.0 1.0 5 18
+ 1.36682 1 2 ack 40 ------- 2 1.0 5.0 5 26
- 1.36682 1 2 ack 40 ------- 2 1.0 5.0 5 26
r 1.37698 1 2 ack 40 ------- 2 1.0 5.0 5 26
+ 1.37698 2 3 ack 40 ------- 2 1.0 5.0 5 26
- 1.37698 2 3 ack 40 ------- 2 1.0 5.0 5 26
r 1.389448 6 3 ack 40 ------- 1 4.0 0.0 6 24
+ 1.389448 3 2 ack 40 ------- 1 4.0 0.0 6 24
- 1.389448 3 2 ack 40 ------- 1 4.0 0.0 6 24
r 1.39426 3 2 tcp 1040 ------- 2 5.0 1.0 6 19
+ 1.39426 2 1 tcp 1040 ------- 2 5.0 1.0 6 19
- 1.39426 2 1 tcp 1040 ------- 2 5.0 1.0 6 19
r 1.39538 2 3 ack 40 ------- 2 1.0 5.0 3 23
h 1.39538 3 6 ack 40 ------- 2 1.0 5.0 3 23
r 1.39586 3 2 ack 40 ------- 1 4.0 0.0 3 20
+ 1.39586 2 0 ack 40 ------- 1 4.0 0.0 3 20
- 1.39586 2 0 ack 40 ------- 1 4.0 0.0 3 20
r 1.40602 2 0 ack 40 ------- 1 4.0 0.0 3 20
+ 1.40602 0 2 tcp 1040 ------- 1 0.0 4.0 7 27
- 1.40602 0 2 tcp 1040 ------- 1 0.0 4.0 7 27
+ 1.40602 0 2 tcp 1040 ------- 1 0.0 4.0 8 28
r 1.40842 2 1 tcp 1040 ------- 2 5.0 1.0 6 19
+ 1.40842 1 2 ack 40 ------- 2 1.0 5.0 6 29
- 1.40842 1 2 ack 40 ------- 2 1.0 5.0 6 29
- 1.41018 0 2 tcp 1040 ------- 1 0.0 4.0 8 28
r 1.41124 3 2 ack 40 ------- 1 4.0 0.0 4 21
+ 1.41124 2 0 ack 40 ------- 1 4.0 0.0 4 21
- 1.41124 2 0 ack 40 ------- 1 4.0 0.0 4 21
r 1.41858 1 2 ack 40 ------- 2 1.0 5.0 6 29
+ 1.41858 2 3 ack 40 ------- 2 1.0 5.0 6 29
- 1.41858 2 3 ack 40 ------- 2 1.0 5.0 6 29
r 1.42018 0 2 tcp 1040 ------- 1 0.0 4.0 7 27
+ 1.42018 2 3 tcp 1040 ------- 1 0.0 4.0 7 27
- 1.42018 2 3 tcp 1040 ------- 1 0.0 4.0 7 27
r 1.4214 2 0 ack 40 ------- 1 4.0 0.0 4 21
+ 1.4214 0 2 tcp 1040 ------- 1 0.0 4.0 9 30
- 1.4214 0 2 tcp 1040 ------- 1 0.0 4.0 9 30
+ 1.4214 0 2 tcp 1040 ------- 1 0.0 4.0 10 31
r 1.42434 0 2 tcp 1040 ------- 1 0.0 4.0 8 28
+ 1.42434 2 3 tcp 1040 ------- 1 0.0 4.0 8 28
- 1.42556 0 2 tcp 1040 ------- 1 0.0 4.0 10 31
+ 1.43538 3 6 ack 40 ------- 2 1.0 5.0 3 23
- 1.43538 3 6 ack 40 ------- 2 1.0 5.0 3 23
r 1.43556 0 2 tcp 1040 ------- 1 0.0 4.0 9 30
+ 1.43556 2 3 tcp 1040 ------- 1 0.0 4.0 9 30
r 1.43698 2 3 ack 40 ------- 2 1.0 5.0 4 25
h 1.43698 3 6 ack 40 ------- 2 1.0 5.0 4 25
r 1.43972 0 2 tcp 1040 ------- 1 0.0 4.0 10 31
+ 1.43972 2 3 tcp 1040 ------- 1 0.0 4.0 10 31
r 1.449448 3 2 ack 40 ------- 1 4.0 0.0 5 22
+ 1.449448 2 0 ack 40 ------- 1 4.0 0.0 5 22
- 1.449448 2 0 ack 40 ------- 1 4.0 0.0 5 22
r 1.459608 2 0 ack 40 ------- 1 4.0 0.0 5 22
+ 1.459608 0 2 tcp 1040 ------- 1 0.0 4.0 11 32
- 1.459608 0 2 tcp 1040 ------- 1 0.0 4.0 11 32
+ 1.459608 0 2 tcp 1040 ------- 1 0.0 4.0 12 33
- 1.46178 2 3 tcp 1040 ------- 1 0.0 4.0 8 28
- 1.463768 0 2 tcp 1040 ------- 1 0.0 4.0 12 33
r 1.473768 0 2 tcp 1040 ------- 1 0.0 4.0 11 32
+ 1.473768 2 3 tcp 1040 ------- 1 0.0 4.0 11 32
r 1.476408 6 5 ack 40 ------- 2 1.0 5.0 3 23
h 1.476408 5 6 tcp 1040 ------- 2 5.0 1.0 7 34
h 1.476408 5 6 tcp 1040 ------- 2 5.0 1.0 8 35
+ 1.47698 3 6 ack 40 ------- 2 1.0 5.0 4 25
- 1.47698 3 6 ack 40 ------- 2 1.0 5.0 4 25
r 1.477928 0 2 tcp 1040 ------- 1 0.0 4.0 12 33
+ 1.477928 2 3 tcp 1040 ------- 1 0.0 4.0 12 33
r 1.47858 2 3 ack 40 ------- 2 1.0 5.0 5 26
h 1.47858 3 6 ack 40 ------- 2 1.0 5.0 5 26
r 1.491048 3 2 ack 40 ------- 1 4.0 0.0 6 24
+ 1.491048 2 0 ack 40 ------- 1 4.0 0.0 6 24
- 1.491048 2 0 ack 40 ------- 1 4.0 0.0 6 24
r 1.501208 2 0 ack 40 ------- 1 4.0 0.0 6 24
+ 1.501208 0 2 tcp 1040 ------- 1 0.0 4.0 13 36
- 1.501208 0 2 tcp 1040 ------- 1 0.0 4.0 13 36
+ 1.501208 0 2 tcp 1040 ------- 1 0.0 4.0 14 37
- 1.50338 2 3 tcp 1040 ------- 1 0.0 4.0 9 30
- 1.505368 0 2 tcp 1040 ------- 1 0.0 4.0 14 37
r 1.515368 0 2 tcp 1040 ------- 1 0.0 4.0 13 36
+ 1.515368 2 3 tcp 1040 ------- 1 0.0 4.0 13 36
+ 1.516408 5 6 tcp 1040 ------- 2 5.0 1.0 7 34
- 1.516408 5 6 tcp 1040 ------- 2 5.0 1.0 7 34
+ 1.516408 5 6 tcp 1040 ------- 2 5.0 1.0 8 35
r 1.518008 6 5 ack 40 ------- 2 1.0 5.0 4 25
h 1.518008 5 6 tcp 1040 ------- 2 5.0 1.0 9 38
h 1.518008 5 6 tcp 1040 ------- 2 5.0 1.0 10 39
+ 1.51858 3 6 ack 40 ------- 2 1.0 5.0 5 26
- 1.51858 3 6 ack 40 ------- 2 1.0 5.0 5 26
r 1.519528 0 2 tcp 1040 ------- 1 0.0 4.0 14 37
+ 1.519528 2 3 tcp 1040 ------- 1 0.0 4.0 14 37
r 1.52018 2 3 ack 40 ------- 2 1.0 5.0 6 29
h 1.52018 3 6 ack 40 ------- 2 1.0 5.0 6 29
- 1.533464 5 6 tcp 1040 ------- 2 5.0 1.0 8 35
c 1.533468 3 6 tcp 1054 ------- 2 5.0 1.0 8 35
c 1.533472 5 6 ack 64 ------- 2 1.0 5.0 5 26
c 1.534752 5 6 ack 64 ------- 2 1.0 5.0 5 26
c 1.534756 3 6 tcp 1054 ------- 2 5.0 1.0 8 35
- 1.54498 2 3 tcp 1040 ------- 1 0.0 4.0 10 31
+ 1.558008 5 6 tcp 1040 ------- 2 5.0 1.0 9 38
- 1.558008 5 6 tcp 1040 ------- 2 5.0 1.0 9 38
+ 1.558008 5 6 tcp 1040 ------- 2 5.0 1.0 10 39
+ 1.56018 3 6 ack 40 ------- 2 1.0 5.0 6 29
- 1.56018 3 6 ack 40 ------- 2 1.0 5.0 6 29
r 1.56178 2 3 tcp 1040 ------- 1 0.0 4.0 7 27
h 1.56178 3 6 tcp 1040 ------- 1 0.0 4.0 7 27
r 1.573276 6 3 tcp 1040 ------- 2 5.0 1.0 7 34
+ 1.573276 3 2 tcp 1040 ------- 2 5.0 1.0 7 34
- 1.573276 3 2 tcp 1040 ------- 2 5.0 1.0 7 34
- 1.575064 5 6 tcp 1040 ------- 2 5.0 1.0 10 39
c 1.575068 3 6 tcp 1054 ------- 2 5.0 1.0 10 39
c 1.575072 5 6 ack 64 ------- 2 1.0 5.0 6 29
r 1.57604 6 5 ack 40 ------- 2 1.0 5.0 5 26
h 1.57604 5 6 tcp 1040 ------- 2 5.0 1.0 11 40
h 1.57604 5 6 tcp 1040 ------- 2 5.0 1.0 12 41
- 1.58658 2 3 tcp 1040 ------- 1 0.0 4.0 11 32
r 1.5931 6 3 tcp 1040 ------- 2 5.0 1.0 8 35
+ 1.5931 3 2 tcp 1040 ------- 2 5.0 1.0 8 35
+ 1.60178 3 6 tcp 1040 ------- 1 0.0 4.0 7 27
- 1.60178 3 6 tcp 1040 ------- 1 0.0 4.0 7 27
r 1.60338 2 3 tcp 1040 ------- 1 0.0 4.0 8 28
h 1.60338 3 6 tcp 1040 ------- 1 0.0 4.0 8 28
- 1.614876 3 2 tcp 1040 ------- 2 5.0 1.0 8 35
r 1.614876 6 3 tcp 1040 ------- 2 5.0 1.0 9 38
+ 1.614876 3 2 tcp 1040 ------- 2 5.0 1.0 9 38
+ 1.61604 5 6 tcp 1040 ------- 2 5.0 1.0 11 40
- 1.61604 5 6 tcp 1040 ------- 2 5.0 1.0 11 40
+ 1.61604 5 6 tcp 1040 ------- 2 5.0 1.0 12 41
r 1.616352 6 5 ack 40 ------- 2 1.0 5.0 6 29
h 1.616352 5 6 tcp 1040 ------- 2 5.0 1.0 13 42
h 1.616352 5 6 tcp 1040 ------- 2 5.0 1.0 14 43
- 1.62818 2 3 tcp 1040 ------- 1 0.0 4.0 12 33
r 1.633412 6 3 tcp 1040 ------- 2 5.0 1.0 10 39
+ 1.633412 3 2 tcp 1040 ------- 2 5.0 1.0 10 39
- 1.635896 5 6 tcp 1040 ------- 2 5.0 1.0 12 41
+ 1.64338 3 6 tcp 1040 ------- 1 0.0 4.0 8 28
- 1.64338 3 6 tcp 1040 ------- 1 0.0 4.0 8 28
r 1.64498 2 3 tcp 1040 ------- 1 0.0 4.0 9 30
h 1.64498 3 6 tcp 1040 ------- 1 0.0 4.0 9 30
+ 1.656352 5 6 tcp 1040 ------- 2 5.0 1.0 13 42
- 1.656352 5 6 tcp 1040 ------- 2 5.0 1.0 13 42
+ 1.656352 5 6 tcp 1040 ------- 2 5.0 1.0 14 43
- 1.656476 3 2 tcp 1040 ------- 2 5.0 1.0 9 38
r 1.658648 6 4 tcp 1040 ------- 1 0.0 4.0 7 27
h 1.658648 4 6 ack 40 ------- 1 4.0 0.0 7 44
- 1.66978 2 3 tcp 1040 ------- 1 0.0 4.0 13 36
r 1.675708 6 3 tcp 1040 ------- 2 5.0 1.0 11 40
+ 1.675708 3 2 tcp 1040 ------- 2 5.0 1.0 11 40
+ 1.68498 3 6 tcp 1040 ------- 1 0.0 4.0 9 30
- 1.68498 3 6 tcp 1040 ------- 1 0.0 4.0 9 30
r 1.68658 2 3 tcp 1040 ------- 1 0.0 4.0 10 31
h 1.68658 3 6 tcp 1040 ------- 1 0.0 4.0 10 31
- 1.687072 5 6 tcp 1040 ------- 2 5.0 1.0 14 43
c 1.687076 3 6 tcp 1054 ------- 2 5.0 1.0 14 43
c 1.68708 5 6 tcp 1054 ------- 1 0.0 4.0 9 30
c 1.687336 5 6 tcp 1054 ------- 1 0.0 4.0 9 30
c 1.68734 3 6 tcp 1054 ------- 2 5.0 1.0 14 43
r 1.692764 6 3 tcp 1040 ------- 2 5.0 1.0 12 41
+ 1.692764 3 2 tcp 1040 ------- 2 5.0 1.0 12 41
- 1.698076 3 2 tcp 1040 ------- 2 5.0 1.0 10 39
+ 1.698648 4 6 ack 40 ------- 1 4.0 0.0 7 44
- 1.698648 4 6 ack 40 ------- 1 4.0 0.0 7 44
c 1.70466 4 6 tcp 1054 ------- 2 5.0 1.0 14 43
c 1.70466 5 6 ack 64 ------- 1 4.0 0.0 7 44
c 1.705944 5 6 ack 64 ------- 1 4.0 0.0 7 44
c 1.705944 4 6 tcp 1054 ------- 2 5.0 1.0 14 43
r 1.709824 6 4 tcp 1040 ------- 1 0.0 4.0 8 28
h 1.709824 4 6 ack 40 ------- 1 4.0 0.0 8 45
- 1.71138 2 3 tcp 1040 ------- 1 0.0 4.0 14 37
r 1.714876 3 2 tcp 1040 ------- 2 5.0 1.0 7 34
+ 1.714876 2 1 tcp 1040 ------- 2 5.0 1.0 7 34
- 1.714876 2 1 tcp 1040 ------- 2 5.0 1.0 7 34
+ 1.72658 3 6 tcp 1040 ------- 1 0.0 4.0 10 31
- 1.72658 3 6 tcp 1040 ------- 1 0.0 4.0 10 31
r 1.726884 6 3 tcp 1040 ------- 2 5.0 1.0 13 42
+ 1.726884 3 2 tcp 1040 ------- 2 5.0 1.0 13 42
r 1.72818 2 3 tcp 1040 ------- 1 0.0 4.0 11 32
h 1.72818 3 6 tcp 1040 ------- 1 0.0 4.0 11 32
r 1.729036 2 1 tcp 1040 ------- 2 5.0 1.0 7 34
+ 1.729036 1 2 ack 40 ------- 2 1.0 5.0 7 46
- 1.729036 1 2 ack 40 ------- 2 1.0 5.0 7 46
r 1.739196 1 2 ack 40 ------- 2 1.0 5.0 7 46
+ 1.739196 2 3 ack 40 ------- 2 1.0 5.0 7 46
- 1.739676 3 2 tcp 1040 ------- 2 5.0 1.0 11 40
r 1.744464 6 4 tcp 1040 ------- 1 0.0 4.0 9 30
h 1.744464 4 6 ack 40 ------- 1 4.0 0.0 9 47
+ 1.749824 4 6 ack 40 ------- 1 4.0 0.0 8 45
- 1.749824 4 6 ack 40 ------- 1 4.0 0.0 8 45
- 1.75298 2 3 ack 40 ------- 2 1.0 5.0 7 46
r 1.756476 3 2 tcp 1040 ------- 2 5.0 1.0 8 35
+ 1.756476 2 1 tcp 1040 ------- 2 5.0 1.0 8 35
- 1.756476 2 1 tcp 1040 ------- 2 5.0 1.0 8 35
r 1.763068 6 3 tcp 1040 ------- 2 5.0 1.0 14 43
+ 1.763068 3 2 tcp 1040 ------- 2 5.0 1.0 14 43
r 1.764288 6 3 ack 40 ------- 1 4.0 0.0 7 44
+ 1.764288 3 2 ack 40 ------- 1 4.0 0.0 7 44
+ 1.76818 3 6 tcp 1040 ------- 1 0.0 4.0 11 32
- 1.76818 3 6 tcp 1040 ------- 1 0.0 4.0 11 32
r 1.76978 2 3 tcp 1040 ------- 1 0.0 4.0 12 33
h 1.76978 3 6 tcp 1040 ------- 1 0.0 4.0 12 33
r 1.770636 2 1 tcp 1040 ------- 2 5.0 1.0 8 35
+ 1.770636 1 2 ack 40 ------- 2 1.0 5.0 8 48
- 1.770636 1 2 ack 40 ------- 2 1.0 5.0 8 48
r 1.780796 1 2 ack 40 ------- 2 1.0 5.0 8 48
+ 1.780796 2 3 ack 40 ------- 2 1.0 5.0 8 48
- 1.780796 2 3 ack 40 ------- 2 1.0 5.0 8 48
- 1.781276 3 2 tcp 1040 ------- 2 5.0 1.0 12 41
r 1.783448 6 4 tcp 1040 ------- 1 0.0 4.0 10 31
h 1.783448 4 6 ack 40 ------- 1 4.0 0.0 10 49
+ 1.784464 4 6 ack 40 ------- 1 4.0 0.0 9 47
- 1.784464 4 6 ack 40 ------- 1 4.0 0.0 9 47
r 1.790852 6 3 ack 40 ------- 1 4.0 0.0 8 45
+ 1.790852 3 2 ack 40 ------- 1 4.0 0.0 8 45
r 1.798076 3 2 tcp 1040 ------- 2 5.0 1.0 9 38
+ 1.798076 2 1 tcp 1040 ------- 2 5.0 1.0 9 38
- 1.798076 2 1 tcp 1040 ------- 2 5.0 1.0 9 38
+ 1.80978 3 6 tcp 1040 ------- 1 0.0 4.0 12 33
- 1.80978 3 6 tcp 1040 ------- 1 0.0 4.0 12 33
r 1.81138 2 3 tcp 1040 ------- 1 0.0 4.0 13 36
h 1.81138 3 6 tcp 1040 ------- 1 0.0 4.0 13 36
r 1.812236 2 1 tcp 1040 ------- 2 5.0 1.0 9 38
+ 1.812236 1 2 ack 40 ------- 2 1.0 5.0 9 50
- 1.812236 1 2 ack 40 ------- 2 1.0 5.0 9 50
r 1.822396 1 2 ack 40 ------- 2 1.0 5.0 9 50
+ 1.822396 2 3 ack 40 ------- 2 1.0 5.0 9 50
- 1.822396 2 3 ack 40 ------- 2 1.0 5.0 9 50
- 1.822876 3 2 tcp 1040 ------- 2 5.0 1.0 13 42
+ 1.823448 4 6 ack 40 ------- 1 4.0 0.0 10 49
- 1.823448 4 6 ack 40 ------- 1 4.0 0.0 10 49
r 1.825048 6 4 tcp 1040 ------- 1 0.0 4.0 11 32
h 1.825048 4 6 ack 40 ------- 1 4.0 0.0 11 51
r 1.826268 6 3 ack 40 ------- 1 4.0 0.0 9 47
+ 1.826268 3 2 ack 40 ------- 1 4.0 0.0 9 47
r 1.839676 3 2 tcp 1040 ------- 2 5.0 1.0 10 39
+ 1.839676 2 1 tcp 1040 ------- 2 5.0 1.0 10 39
- 1.839676 2 1 tcp 1040 ------- 2 5.0 1.0 10 39
+ 1.85138 3 6 tcp 1040 ------- 1 0.0 4.0 13 36
- 1.85138 3 6 tcp 1040 ------- 1 0.0 4.0 13 36
r 1.85298 2 3 tcp 1040 ------- 1 0.0 4.0 14 37
h 1.85298 3 6 tcp 1040 ------- 1 0.0 4.0 14 37
r 1.853836 2 1 tcp 1040 ------- 2 5.0 1.0 10 39
+ 1.853836 1 2 ack 40 ------- 2 1.0 5.0 10 52
- 1.853836 1 2 ack 40 ------- 2 1.0 5.0 10 52
r 1.85458 2 3 ack 40 ------- 2 1.0 5.0 7 46
h 1.85458 3 6 ack 40 ------- 2 1.0 5.0 7 46
r 1.863996 1 2 ack 40 ------- 2 1.0 5.0 10 52
+ 1.863996 2 3 ack 40 ------- 2 1.0 5.0 10 52
- 1.863996 2 3 ack 40 ------- 2 1.0 5.0 10 52
- 1.864476 3 2 tcp 1040 ------- 2 5.0 1.0 14 43
+ 1.865048 4 6 ack 40 ------- 1 4.0 0.0 11 51
- 1.865048 4 6 ack 40 ------- 1 4.0 0.0 11 51
r 1.866648 6 4 tcp 1040 ------- 1 0.0 4.0 12 33
h 1.866648 4 6 ack 40 ------- 1 4.0 0.0 12 53
r 1.867868 6 3 ack 40 ------- 1 4.0 0.0 10 49
+ 1.867868 3 2 ack 40 ------- 1 4.0 0.0 10 49
r 1.881276 3 2 tcp 1040 ------- 2 5.0 1.0 11 40
+ 1.881276 2 1 tcp 1040 ------- 2 5.0 1.0 11 40
- 1.881276 2 1 tcp 1040 ------- 2 5.0 1.0 11 40
r 1.882396 2 3 ack 40 ------- 2 1.0 5.0 8 48
h 1.882396 3 6 ack 40 ------- 2 1.0 5.0 8 48
+ 1.89298 3 6 tcp 1040 ------- 1 0.0 4.0 14 37
- 1.89298 3 6 tcp 1040 ------- 1 0.0 4.0 14 37
+ 1.89458 3 6 ack 40 ------- 2 1.0 5.0 7 46
r 1.895436 2 1 tcp 1040 ------- 2 5.0 1.0 11 40
+ 1.895436 1 2 ack 40 ------- 2 1.0 5.0 11 54
- 1.895436 1 2 ack 40 ------- 2 1.0 5.0 11 54
r 1.905596 1 2 ack 40 ------- 2 1.0 5.0 11 54
+ 1.905596 2 3 ack 40 ------- 2 1.0 5.0 11 54
- 1.905596 2 3 ack 40 ------- 2 1.0 5.0 11 54
- 1.906076 3 2 ack 40 ------- 1 4.0 0.0 7 44
+ 1.906648 4 6 ack 40 ------- 1 4.0 0.0 12 53
- 1.906648 4 6 ack 40 ------- 1 4.0 0.0 12 53
- 1.907676 3 2 ack 40 ------- 1 4.0 0.0 8 45
r 1.908248 6 4 tcp 1040 ------- 1 0.0 4.0 13 36
h 1.908248 4 6 ack 40 ------- 1 4.0 0.0 13 55
- 1.909276 3 2 ack 40 ------- 1 4.0 0.0 9 47
r 1.909468 6 3 ack 40 ------- 1 4.0 0.0 11 51
+ 1.909468 3 2 ack 40 ------- 1 4.0 0.0 11 51
- 1.910036 3 6 ack 40 ------- 2 1.0 5.0 7 46
c 1.91004 4 6 ack 64 ------- 2 1.0 5.0 7 46
c 1.910044 3 6 ack 64 ------- 1 4.0 0.0 12 53
- 1.910876 3 2 ack 40 ------- 1 4.0 0.0 10 49
- 1.912476 3 2 ack 40 ------- 1 4.0 0.0 11 51
+ 1.922396 3 6 ack 40 ------- 2 1.0 5.0 8 48
- 1.922396 3 6 ack 40 ------- 2 1.0 5.0 8 48
r 1.922876 3 2 tcp 1040 ------- 2 5.0 1.0 12 41
+ 1.922876 2 1 tcp 1040 ------- 2 5.0 1.0 12 41
- 1.922876 2 1 tcp 1040 ------- 2 5.0 1.0 12 41
r 1.923996 2 3 ack 40 ------- 2 1.0 5.0 9 50
h 1.923996 3 6 ack 40 ------- 2 1.0 5.0 9 50
r 1.937036 2 1 tcp 1040 ------- 2 5.0 1.0 12 41
+ 1.937036 1 2 ack 40 ------- 2 1.0 5.0 12 56
- 1.937036 1 2 ack 40 ------- 2 1.0 5.0 12 56
r 1.947196 1 2 ack 40 ------- 2 1.0 5.0 12 56
+ 1.947196 2 3 ack 40 ------- 2 1.0 5.0 12 56
- 1.947196 2 3 ack 40 ------- 2 1.0 5.0 12 56
+ 1.948248 4 6 ack 40 ------- 1 4.0 0.0 13 55
- 1.948248 4 6 ack 40 ------- 1 4.0 0.0 13 55
r 1.949848 6 4 tcp 1040 ------- 1 0.0 4.0 14 37
h 1.949848 4 6 ack 40 ------- 1 4.0 0.0 14 57
r 1.951324 6 3 ack 40 ------- 1 4.0 0.0 12 53
+ 1.951324 3 2 ack 40 ------- 1 4.0 0.0 12 53
- 1.951324 3 2 ack 40 ------- 1 4.0 0.0 12 53
r 1.952544 6 5 ack 40 ------- 2 1.0 5.0 7 46
h 1.952544 5 6 tcp 1040 ------- 2 5.0 1.0 15 58
h 1.952544 5 6 tcp 1040 ------- 2 5.0 1.0 16 59
r 1.963424 6 5 ack 40 ------- 2 1.0 5.0 8 48
h 1.963424 5 6 tcp 1040 ------- 2 5.0 1.0 17 60
h 1.963424 5 6 tcp 1040 ------- 2 5.0 1.0 18 61
+ 1.963996 3 6 ack 40 ------- 2 1.0 5.0 9 50
- 1.963996 3 6 ack 40 ------- 2 1.0 5.0 9 50
r 1.964476 3 2 tcp 1040 ------- 2 5.0 1.0 13 42
+ 1.964476 2 1 tcp 1040 ------- 2 5.0 1.0 13 42
- 1.964476 2 1 tcp 1040 ------- 2 5.0 1.0 13 42
r 1.965596 2 3 ack 40 ------- 2 1.0 5.0 10 52
h 1.965596 3 6 ack 40 ------- 2 1.0 5.0 10 52
r 1.978636 2 1 tcp 1040 ------- 2 5.0 1.0 13 42
+ 1.978636 1 2 ack 40 ------- 2 1.0 5.0 13 62
- 1.978636 1 2 ack 40 ------- 2 1.0 5.0 13 62
r 1.988796 1 2 ack 40 ------- 2 1.0 5.0 13 62
+ 1.988796 2 3 ack 40 ------- 2 1.0 5.0 13 62
- 1.988796 2 3 ack 40 ------- 2 1.0 5.0 13 62
r 1.989276 6 3 ack 40 ------- 1 4.0 0.0 13 55
+ 1.989276 3 2 ack 40 ------- 1 4.0 0.0 13 55
- 1.989276 3 2 ack 40 ------- 1 4.0 0.0 13 55
+ 1.989848 4 6 ack 40 ------- 1 4.0 0.0 14 57
- 1.989848 4 6 ack 40 ------- 1 4.0 0.0 14 57
+ 1.992544 5 6 tcp 1040 ------- 2 5.0 1.0 15 58
- 1.992544 5 6 tcp 1040 ------- 2 5.0 1.0 15 58
+ 1.992544 5 6 tcp 1040 ------- 2 5.0 1.0 16 59
+ 2.003424 5 6 tcp 1040 ------- 2 5.0 1.0 17 60
+ 2.003424 5 6 tcp 1040 ------- 2 5.0 1.0 18 61
r 2.005024 6 5 ack 40 ------- 2 1.0 5.0 9 50
h 2.005024 5 6 tcp 1040 ------- 2 5.0 1.0 19 63
h 2.005024 5 6 tcp 1040 ------- 2 5.0 1.0 20 64
+ 2.005596 3 6 ack 40 ------- 2 1.0 5.0 10 52
- 2.005596 3 6 ack 40 ------- 2 1.0 5.0 10 52
r 2.006076 3 2 tcp 1040 ------- 2 5.0 1.0 14 43
+ 2.006076 2 1 tcp 1040 ------- 2 5.0 1.0 14 43
- 2.006076 2 1 tcp 1040 ------- 2 5.0 1.0 14 43
r 2.007196 2 3 ack 40 ------- 2 1.0 5.0 11 54
h 2.007196 3 6 ack 40 ------- 2 1.0 5.0 11 54
r 2.007676 3 2 ack 40 ------- 1 4.0 0.0 7 44
+ 2.007676 2 0 ack 40 ------- 1 4.0 0.0 7 44
- 2.007676 2 0 ack 40 ------- 1 4.0 0.0 7 44
r 2.009276 3 2 ack 40 ------- 1 4.0 0.0 8 45
+ 2.009276 2 0 ack 40 ------- 1 4.0 0.0 8 45
- 2.009276 2 0 ack 40 ------- 1 4.0 0.0 8 45
- 2.0096 5 6 tcp 1040 ------- 2 5.0 1.0 16 59
c 2.009604 3 6 tcp 1054 ------- 2 5.0 1.0 16 59
c 2.009608 5 6 ack 64 ------- 2 1.0 5.0 10 52
r 2.010876 3 2 ack 40 ------- 1 4.0 0.0 9 47
+ 2.010876 2 0 ack 40 ------- 1 4.0 0.0 9 47
- 2.010876 2 0 ack 40 ------- 1 4.0 0.0 9 47
r 2.012476 3 2 ack 40 ------- 1 4.0 0.0 10 49
+ 2.012476 2 0 ack 40 ------- 1 4.0 0.0 10 49
- 2.012476 2 0 ack 40 ------- 1 4.0 0.0 10 49
r 2.014076 3 2 ack 40 ------- 1 4.0 0.0 11 51
+ 2.014076 2 0 ack 40 ------- 1 4.0 0.0 11 51
- 2.014076 2 0 ack 40 ------- 1 4.0 0.0 11 51
r 2.017836 2 0 ack 40 ------- 1 4.0 0.0 7 44
+ 2.017836 0 2 tcp 1040 ------- 1 0.0 4.0 15 65
- 2.017836 0 2 tcp 1040 ------- 1 0.0 4.0 15 65
+ 2.017836 0 2 tcp 1040 ------- 1 0.0 4.0 16 66
r 2.019436 2 0 ack 40 ------- 1 4.0 0.0 8 45
+ 2.019436 0 2 tcp 1040 ------- 1 0.0 4.0 17 67
+ 2.019436 0 2 tcp 1040 ------- 1 0.0 4.0 18 68
r 2.020236 2 1 tcp 1040 ------- 2 5.0 1.0 14 43
+ 2.020236 1 2 ack 40 ------- 2 1.0 5.0 14 69
- 2.020236 1 2 ack 40 ------- 2 1.0 5.0 14 69
r 2.021036 2 0 ack 40 ------- 1 4.0 0.0 9 47
+ 2.021036 0 2 tcp 1040 ------- 1 0.0 4.0 19 70
+ 2.021036 0 2 tcp 1040 ------- 1 0.0 4.0 20 71
- 2.021996 0 2 tcp 1040 ------- 1 0.0 4.0 16 66
r 2.022636 2 0 ack 40 ------- 1 4.0 0.0 10 49
+ 2.022636 0 2 tcp 1040 ------- 1 0.0 4.0 21 72
+ 2.022636 0 2 tcp 1040 ------- 1 0.0 4.0 22 73
r 2.024236 2 0 ack 40 ------- 1 4.0 0.0 11 51
+ 2.024236 0 2 tcp 1040 ------- 1 0.0 4.0 23 74
+ 2.024236 0 2 tcp 1040 ------- 1 0.0 4.0 24 75
- 2.026156 0 2 tcp 1040 ------- 1 0.0 4.0 17 67
- 2.02692 5 6 tcp 1040 ------- 2 5.0 1.0 17 60
c 2.026924 3 6 tcp 1054 ------- 2 5.0 1.0 17 60
c 2.026928 5 6 ack 64 ------- 2 1.0 5.0 10 52
c 2.028208 5 6 ack 64 ------- 2 1.0 5.0 10 52
c 2.028212 3 6 tcp 1054 ------- 2 5.0 1.0 17 60
- 2.030316 0 2 tcp 1040 ------- 1 0.0 4.0 18 68
r 2.030396 1 2 ack 40 ------- 2 1.0 5.0 14 69
+ 2.030396 2 3 ack 40 ------- 2 1.0 5.0 14 69
- 2.030396 2 3 ack 40 ------- 2 1.0 5.0 14 69
r 2.030876 6 3 ack 40 ------- 1 4.0 0.0 14 57
+ 2.030876 3 2 ack 40 ------- 1 4.0 0.0 14 57
- 2.030876 3 2 ack 40 ------- 1 4.0 0.0 14 57
r 2.031996 0 2 tcp 1040 ------- 1 0.0 4.0 15 65
+ 2.031996 2 3 tcp 1040 ------- 1 0.0 4.0 15 65
- 2.031996 2 3 tcp 1040 ------- 1 0.0 4.0 15 65
- 2.034476 0 2 tcp 1040 ------- 1 0.0 4.0 19 70
r 2.036156 0 2 tcp 1040 ------- 1 0.0 4.0 16 66
+ 2.036156 2 3 tcp 1040 ------- 1 0.0 4.0 16 66
- 2.038636 0 2 tcp 1040 ------- 1 0.0 4.0 20 71
r 2.040316 0 2 tcp 1040 ------- 1 0.0 4.0 17 67
+ 2.040316 2 3 tcp 1040 ------- 1 0.0 4.0 17 67
- 2.042796 0 2 tcp 1040 ------- 1 0.0 4.0 21 72
r 2.044476 0 2 tcp 1040 ------- 1 0.0 4.0 18 68
+ 2.044476 2 3 tcp 1040 ------- 1 0.0 4.0 18 68
+ 2.045024 5 6 tcp 1040 ------- 2 5.0 1.0 19 63
+ 2.045024 5 6 tcp 1040 ------- 2 5.0 1.0 20 64
- 2.046544 5 6 tcp 1040 ------- 2 5.0 1.0 18 61
c 2.046548 3 6 tcp 1054 ------- 2 5.0 1.0 18 61
c 2.046552 5 6 ack 64 ------- 2 1.0 5.0 10 52
- 2.046956 0 2 tcp 1040 ------- 1 0.0 4.0 22 73
+ 2.047196 3 6 ack 40 ------- 2 1.0 5.0 11 54
r 2.048636 0 2 tcp 1040 ------- 1 0.0 4.0 19 70
+ 2.048636 2 3 tcp 1040 ------- 1 0.0 4.0 19 70
r 2.048796 2 3 ack 40 ------- 2 1.0 5.0 12 56
h 2.048796 3 6 ack 40 ------- 2 1.0 5.0 12 56
r 2.049412 6 3 tcp 1040 ------- 2 5.0 1.0 15 58
+ 2.049412 3 2 tcp 1040 ------- 2 5.0 1.0 15 58
- 2.049412 3 2 tcp 1040 ------- 2 5.0 1.0 15 58
- 2.051116 0 2 tcp 1040 ------- 1 0.0 4.0 23 74
r 2.052796 0 2 tcp 1040 ------- 1 0.0 4.0 20 71
+ 2.052796 2 3 tcp 1040 ------- 1 0.0 4.0 20 71
r 2.052924 3 2 ack 40 ------- 1 4.0 0.0 12 53
+ 2.052924 2 0 ack 40 ------- 1 4.0 0.0 12 53
- 2.052924 2 0 ack 40 ------- 1 4.0 0.0 12 53